V -t * -v 1.0a5 -a 0
A -t * -n 1 -p 0 -o 0x7fffffff -c 30 -a 1
A -t * -h 1 -m 1073741823 -s 0
n -t * -a 4 -s 4 -S UP -v circle -c black -i black
n -t * -a 0 -s 0 -S UP -v circle -c black -i black
n -t * -a 1 -s 1 -S UP -v circle -c black -i black
n -t * -a 2 -s 2 -S UP -v circle -c black -i black
n -t * -a 3 -s 3 -S UP -v circle -c black -i black
l -t * -s 0 -d 1 -S UP -r 100000000 -D 0.01 -c black -o right-up
l -t * -s 2 -d 3 -S UP -r 100000000 -D 0.01 -c black -o left-down
l -t * -s 3 -d 4 -S UP -r 100000000 -D 0.01 -c black -o left-down
l -t * -s 4 -d 0 -S UP -r 100000000 -D 0.01 -c black -o left-up
l -t * -s 1 -d 4 -S UP -r 100000000 -D 0.01 -c black -o left-down
l -t * -s 1 -d 3 -S UP -r 100000000 -D 0.01 -c black -o right-down
l -t * -s 1 -d 2 -S UP -r 100000000 -D 0.01 -c black -o right-down
l -t * -s 2 -d 0 -S UP -r 100000000 -D 0.01 -c black -o left-up
l -t * -s 2 -d 4 -S UP -r 100000000 -D 0.01 -c black -o left-down
l -t * -s 0 -d 3 -S UP -r 100000000 -D 0.01 -c black -o right-down
+ -t 0 -s 0 -d 3 -p tcp -e 40 -c 0 -i 0 -a 0 -x {0.0 3.0 0 ------- null}
- -t 0 -s 0 -d 3 -p tcp -e 40 -c 0 -i 0 -a 0 -x {0.0 3.0 0 ------- null}
h -t 0 -s 0 -d 3 -p tcp -e 40 -c 0 -i 0 -a 0 -x {0.0 3.0 -1 ------- null}
r -t 0.0100032 -s 0 -d 3 -p tcp -e 40 -c 0 -i 0 -a 0 -x {0.0 3.0 0 ------- null}
+ -t 0.0100032 -s 3 -d 0 -p ack -e 40 -c 0 -i 1 -a 0 -x {3.0 0.0 0 ------- null}
- -t 0.0100032 -s 3 -d 0 -p ack -e 40 -c 0 -i 1 -a 0 -x {3.0 0.0 0 ------- null}
h -t 0.0100032 -s 3 -d 0 -p ack -e 40 -c 0 -i 1 -a 0 -x {3.0 0.0 -1 ------- null}
r -t 0.0200064 -s 3 -d 0 -p ack -e 40 -c 0 -i 1 -a 0 -x {3.0 0.0 0 ------- null}
+ -t 0.0200064 -s 0 -d 3 -p tcp -e 1540 -c 0 -i 2 -a 0 -x {0.0 3.0 1 ------- null}
- -t 0.0200064 -s 0 -d 3 -p tcp -e 1540 -c 0 -i 2 -a 0 -x {0.0 3.0 1 ------- null}
h -t 0.0200064 -s 0 -d 3 -p tcp -e 1540 -c 0 -i 2 -a 0 -x {0.0 3.0 -1 ------- null}
+ -t 0.0200064 -s 0 -d 3 -p tcp -e 1540 -c 0 -i 3 -a 0 -x {0.0 3.0 2 ------- null}
- -t 0.0201296 -s 0 -d 3 -p tcp -e 1540 -c 0 -i 3 -a 0 -x {0.0 3.0 2 ------- null}
h -t 0.0201296 -s 0 -d 3 -p tcp -e 1540 -c 0 -i 3 -a 0 -x {0.0 3.0 -1 ------- null}
r -t 0.0301296 -s 0 -d 3 -p tcp -e 1540 -c 0 -i 2 -a 0 -x {0.0 3.0 1 ------- null}
+ -t 0.0301296 -s 3 -d 0 -p ack -e 40 -c 0 -i 4 -a 0 -x {3.0 0.0 1 ------- null}
- -t 0.0301296 -s 3 -d 0 -p ack -e 40 -c 0 -i 4 -a 0 -x {3.0 0.0 1 ------- null}
h -t 0.0301296 -s 3 -d 0 -p ack -e 40 -c 0 -i 4 -a 0 -x {3.0 0.0 -1 ------- null}
r -t 0.0302528 -s 0 -d 3 -p tcp -e 1540 -c 0 -i 3 -a 0 -x {0.0 3.0 2 ------- null}
+ -t 0.0302528 -s 3 -d 0 -p ack -e 40 -c 0 -i 5 -a 0 -x {3.0 0.0 2 ------- null}
- -t 0.0302528 -s 3 -d 0 -p ack -e 40 -c 0 -i 5 -a 0 -x {3.0 0.0 2 ------- null}
h -t 0.0302528 -s 3 -d 0 -p ack -e 40 -c 0 -i 5 -a 0 -x {3.0 0.0 -1 ------- null}
r -t 0.0401328 -s 3 -d 0 -p ack -e 40 -c 0 -i 4 -a 0 -x {3.0 0.0 1 ------- null}
+ -t 0.0401328 -s 0 -d 3 -p tcp -e 1540 -c 0 -i 6 -a 0 -x {0.0 3.0 3 ------- null}
- -t 0.0401328 -s 0 -d 3 -p tcp -e 1540 -c 0 -i 6 -a 0 -x {0.0 3.0 3 ------- null}
h -t 0.0401328 -s 0 -d 3 -p tcp -e 1540 -c 0 -i 6 -a 0 -x {0.0 3.0 -1 ------- null}
+ -t 0.0401328 -s 0 -d 3 -p tcp -e 1540 -c 0 -i 7 -a 0 -x {0.0 3.0 4 ------- null}
- -t 0.040256 -s 0 -d 3 -p tcp -e 1540 -c 0 -i 7 -a 0 -x {0.0 3.0 4 ------- null}
h -t 0.040256 -s 0 -d 3 -p tcp -e 1540 -c 0 -i 7 -a 0 -x {0.0 3.0 -1 ------- null}
r -t 0.040256 -s 3 -d 0 -p ack -e 40 -c 0 -i 5 -a 0 -x {3.0 0.0 2 ------- null}
+ -t 0.040256 -s 0 -d 3 -p tcp -e 1540 -c 0 -i 8 -a 0 -x {0.0 3.0 5 ------- null}
+ -t 0.040256 -s 0 -d 3 -p tcp -e 1540 -c 0 -i 9 -a 0 -x {0.0 3.0 6 ------- null}
- -t 0.0403792 -s 0 -d 3 -p tcp -e 1540 -c 0 -i 8 -a 0 -x {0.0 3.0 5 ------- null}
h -t 0.0403792 -s 0 -d 3 -p tcp -e 1540 -c 0 -i 8 -a 0 -x {0.0 3.0 -1 ------- null}
- -t 0.0405024 -s 0 -d 3 -p tcp -e 1540 -c 0 -i 9 -a 0 -x {0.0 3.0 6 ------- null}
h -t 0.0405024 -s 0 -d 3 -p tcp -e 1540 -c 0 -i 9 -a 0 -x {0.0 3.0 -1 ------- null}
r -t 0.050256 -s 0 -d 3 -p tcp -e 1540 -c 0 -i 6 -a 0 -x {0.0 3.0 3 ------- null}
+ -t 0.050256 -s 3 -d 0 -p ack -e 40 -c 0 -i 10 -a 0 -x {3.0 0.0 3 ------- null}
- -t 0.050256 -s 3 -d 0 -p ack -e 40 -c 0 -i 10 -a 0 -x {3.0 0.0 3 ------- null}
h -t 0.050256 -s 3 -d 0 -p ack -e 40 -c 0 -i 10 -a 0 -x {3.0 0.0 -1 ------- null}
r -t 0.0503792 -s 0 -d 3 -p tcp -e 1540 -c 0 -i 7 -a 0 -x {0.0 3.0 4 ------- null}
+ -t 0.0503792 -s 3 -d 0 -p ack -e 40 -c 0 -i 11 -a 0 -x {3.0 0.0 4 ------- null}
- -t 0.0503792 -s 3 -d 0 -p ack -e 40 -c 0 -i 11 -a 0 -x {3.0 0.0 4 ------- null}
h -t 0.0503792 -s 3 -d 0 -p ack -e 40 -c 0 -i 11 -a 0 -x {3.0 0.0 -1 ------- null}
r -t 0.0505024 -s 0 -d 3 -p tcp -e 1540 -c 0 -i 8 -a 0 -x {0.0 3.0 5 ------- null}
+ -t 0.0505024 -s 3 -d 0 -p ack -e 40 -c 0 -i 12 -a 0 -x {3.0 0.0 5 ------- null}
- -t 0.0505024 -s 3 -d 0 -p ack -e 40 -c 0 -i 12 -a 0 -x {3.0 0.0 5 ------- null}
h -t 0.0505024 -s 3 -d 0 -p ack -e 40 -c 0 -i 12 -a 0 -x {3.0 0.0 -1 ------- null}
r -t 0.0506256 -s 0 -d 3 -p tcp -e 1540 -c 0 -i 9 -a 0 -x {0.0 3.0 6 ------- null}
+ -t 0.0506256 -s 3 -d 0 -p ack -e 40 -c 0 -i 13 -a 0 -x {3.0 0.0 6 ------- null}
- -t 0.0506256 -s 3 -d 0 -p ack -e 40 -c 0 -i 13 -a 0 -x {3.0 0.0 6 ------- null}
h -t 0.0506256 -s 3 -d 0 -p ack -e 40 -c 0 -i 13 -a 0 -x {3.0 0.0 -1 ------- null}
r -t 0.0602592 -s 3 -d 0 -p ack -e 40 -c 0 -i 10 -a 0 -x {3.0 0.0 3 ------- null}
+ -t 0.0602592 -s 0 -d 3 -p tcp -e 1540 -c 0 -i 14 -a 0 -x {0.0 3.0 7 ------- null}
- -t 0.0602592 -s 0 -d 3 -p tcp -e 1540 -c 0 -i 14 -a 0 -x {0.0 3.0 7 ------- null}
h -t 0.0602592 -s 0 -d 3 -p tcp -e 1540 -c 0 -i 14 -a 0 -x {0.0 3.0 -1 ------- null}
+ -t 0.0602592 -s 0 -d 3 -p tcp -e 1540 -c 0 -i 15 -a 0 -x {0.0 3.0 8 ------- null}
r -t 0.0603824 -s 3 -d 0 -p ack -e 40 -c 0 -i 11 -a 0 -x {3.0 0.0 4 ------- null}
+ -t 0.0603824 -s 0 -d 3 -p tcp -e 1540 -c 0 -i 16 -a 0 -x {0.0 3.0 9 ------- null}
+ -t 0.0603824 -s 0 -d 3 -p tcp -e 1540 -c 0 -i 17 -a 0 -x {0.0 3.0 10 ------- null}
- -t 0.0603824 -s 0 -d 3 -p tcp -e 1540 -c 0 -i 15 -a 0 -x {0.0 3.0 8 ------- null}
h -t 0.0603824 -s 0 -d 3 -p tcp -e 1540 -c 0 -i 15 -a 0 -x {0.0 3.0 -1 ------- null}
r -t 0.0605056 -s 3 -d 0 -p ack -e 40 -c 0 -i 12 -a 0 -x {3.0 0.0 5 ------- null}
+ -t 0.0605056 -s 0 -d 3 -p tcp -e 1540 -c 0 -i 18 -a 0 -x {0.0 3.0 11 ------- null}
+ -t 0.0605056 -s 0 -d 3 -p tcp -e 1540 -c 0 -i 19 -a 0 -x {0.0 3.0 12 ------- null}
- -t 0.0605056 -s 0 -d 3 -p tcp -e 1540 -c 0 -i 16 -a 0 -x {0.0 3.0 9 ------- null}
h -t 0.0605056 -s 0 -d 3 -p tcp -e 1540 -c 0 -i 16 -a 0 -x {0.0 3.0 -1 ------- null}
r -t 0.0606288 -s 3 -d 0 -p ack -e 40 -c 0 -i 13 -a 0 -x {3.0 0.0 6 ------- null}
+ -t 0.0606288 -s 0 -d 3 -p tcp -e 1540 -c 0 -i 20 -a 0 -x {0.0 3.0 13 ------- null}
+ -t 0.0606288 -s 0 -d 3 -p tcp -e 1540 -c 0 -i 21 -a 0 -x {0.0 3.0 14 ------- null}
- -t 0.0606288 -s 0 -d 3 -p tcp -e 1540 -c 0 -i 17 -a 0 -x {0.0 3.0 10 ------- null}
h -t 0.0606288 -s 0 -d 3 -p tcp -e 1540 -c 0 -i 17 -a 0 -x {0.0 3.0 -1 ------- null}
- -t 0.060752 -s 0 -d 3 -p tcp -e 1540 -c 0 -i 18 -a 0 -x {0.0 3.0 11 ------- null}
h -t 0.060752 -s 0 -d 3 -p tcp -e 1540 -c 0 -i 18 -a 0 -x {0.0 3.0 -1 ------- null}
- -t 0.0608752 -s 0 -d 3 -p tcp -e 1540 -c 0 -i 19 -a 0 -x {0.0 3.0 12 ------- null}
h -t 0.0608752 -s 0 -d 3 -p tcp -e 1540 -c 0 -i 19 -a 0 -x {0.0 3.0 -1 ------- null}
- -t 0.0609984 -s 0 -d 3 -p tcp -e 1540 -c 0 -i 20 -a 0 -x {0.0 3.0 13 ------- null}
h -t 0.0609984 -s 0 -d 3 -p tcp -e 1540 -c 0 -i 20 -a 0 -x {0.0 3.0 -1 ------- null}
- -t 0.0611216 -s 0 -d 3 -p tcp -e 1540 -c 0 -i 21 -a 0 -x {0.0 3.0 14 ------- null}
h -t 0.0611216 -s 0 -d 3 -p tcp -e 1540 -c 0 -i 21 -a 0 -x {0.0 3.0 -1 ------- null}
r -t 0.0703824 -s 0 -d 3 -p tcp -e 1540 -c 0 -i 14 -a 0 -x {0.0 3.0 7 ------- null}
+ -t 0.0703824 -s 3 -d 0 -p ack -e 40 -c 0 -i 22 -a 0 -x {3.0 0.0 7 ------- null}
- -t 0.0703824 -s 3 -d 0 -p ack -e 40 -c 0 -i 22 -a 0 -x {3.0 0.0 7 ------- null}
h -t 0.0703824 -s 3 -d 0 -p ack -e 40 -c 0 -i 22 -a 0 -x {3.0 0.0 -1 ------- null}
r -t 0.0705056 -s 0 -d 3 -p tcp -e 1540 -c 0 -i 15 -a 0 -x {0.0 3.0 8 ------- null}
+ -t 0.0705056 -s 3 -d 0 -p ack -e 40 -c 0 -i 23 -a 0 -x {3.0 0.0 8 ------- null}
- -t 0.0705056 -s 3 -d 0 -p ack -e 40 -c 0 -i 23 -a 0 -x {3.0 0.0 8 ------- null}
h -t 0.0705056 -s 3 -d 0 -p ack -e 40 -c 0 -i 23 -a 0 -x {3.0 0.0 -1 ------- null}
r -t 0.0706288 -s 0 -d 3 -p tcp -e 1540 -c 0 -i 16 -a 0 -x {0.0 3.0 9 ------- null}
+ -t 0.0706288 -s 3 -d 0 -p ack -e 40 -c 0 -i 24 -a 0 -x {3.0 0.0 9 ------- null}
- -t 0.0706288 -s 3 -d 0 -p ack -e 40 -c 0 -i 24 -a 0 -x {3.0 0.0 9 ------- null}
h -t 0.0706288 -s 3 -d 0 -p ack -e 40 -c 0 -i 24 -a 0 -x {3.0 0.0 -1 ------- null}
r -t 0.070752 -s 0 -d 3 -p tcp -e 1540 -c 0 -i 17 -a 0 -x {0.0 3.0 10 ------- null}
+ -t 0.070752 -s 3 -d 0 -p ack -e 40 -c 0 -i 25 -a 0 -x {3.0 0.0 10 ------- null}
- -t 0.070752 -s 3 -d 0 -p ack -e 40 -c 0 -i 25 -a 0 -x {3.0 0.0 10 ------- null}
h -t 0.070752 -s 3 -d 0 -p ack -e 40 -c 0 -i 25 -a 0 -x {3.0 0.0 -1 ------- null}
r -t 0.0708752 -s 0 -d 3 -p tcp -e 1540 -c 0 -i 18 -a 0 -x {0.0 3.0 11 ------- null}
+ -t 0.0708752 -s 3 -d 0 -p ack -e 40 -c 0 -i 26 -a 0 -x {3.0 0.0 11 ------- null}
- -t 0.0708752 -s 3 -d 0 -p ack -e 40 -c 0 -i 26 -a 0 -x {3.0 0.0 11 ------- null}
h -t 0.0708752 -s 3 -d 0 -p ack -e 40 -c 0 -i 26 -a 0 -x {3.0 0.0 -1 ------- null}
r -t 0.0709984 -s 0 -d 3 -p tcp -e 1540 -c 0 -i 19 -a 0 -x {0.0 3.0 12 ------- null}
+ -t 0.0709984 -s 3 -d 0 -p ack -e 40 -c 0 -i 27 -a 0 -x {3.0 0.0 12 ------- null}
- -t 0.0709984 -s 3 -d 0 -p ack -e 40 -c 0 -i 27 -a 0 -x {3.0 0.0 12 ------- null}
h -t 0.0709984 -s 3 -d 0 -p ack -e 40 -c 0 -i 27 -a 0 -x {3.0 0.0 -1 ------- null}
r -t 0.0711216 -s 0 -d 3 -p tcp -e 1540 -c 0 -i 20 -a 0 -x {0.0 3.0 13 ------- null}
+ -t 0.0711216 -s 3 -d 0 -p ack -e 40 -c 0 -i 28 -a 0 -x {3.0 0.0 13 ------- null}
- -t 0.0711216 -s 3 -d 0 -p ack -e 40 -c 0 -i 28 -a 0 -x {3.0 0.0 13 ------- null}
h -t 0.0711216 -s 3 -d 0 -p ack -e 40 -c 0 -i 28 -a 0 -x {3.0 0.0 -1 ------- null}
r -t 0.0712448 -s 0 -d 3 -p tcp -e 1540 -c 0 -i 21 -a 0 -x {0.0 3.0 14 ------- null}
+ -t 0.0712448 -s 3 -d 0 -p ack -e 40 -c 0 -i 29 -a 0 -x {3.0 0.0 14 ------- null}
- -t 0.0712448 -s 3 -d 0 -p ack -e 40 -c 0 -i 29 -a 0 -x {3.0 0.0 14 ------- null}
h -t 0.0712448 -s 3 -d 0 -p ack -e 40 -c 0 -i 29 -a 0 -x {3.0 0.0 -1 ------- null}
r -t 0.0803856 -s 3 -d 0 -p ack -e 40 -c 0 -i 22 -a 0 -x {3.0 0.0 7 ------- null}
+ -t 0.0803856 -s 0 -d 3 -p tcp -e 1540 -c 0 -i 30 -a 0 -x {0.0 3.0 15 ------- null}
- -t 0.0803856 -s 0 -d 3 -p tcp -e 1540 -c 0 -i 30 -a 0 -x {0.0 3.0 15 ------- null}
h -t 0.0803856 -s 0 -d 3 -p tcp -e 1540 -c 0 -i 30 -a 0 -x {0.0 3.0 -1 ------- null}
+ -t 0.0803856 -s 0 -d 3 -p tcp -e 1540 -c 0 -i 31 -a 0 -x {0.0 3.0 16 ------- null}
r -t 0.0805088 -s 3 -d 0 -p ack -e 40 -c 0 -i 23 -a 0 -x {3.0 0.0 8 ------- null}
+ -t 0.0805088 -s 0 -d 3 -p tcp -e 1540 -c 0 -i 32 -a 0 -x {0.0 3.0 17 ------- null}
+ -t 0.0805088 -s 0 -d 3 -p tcp -e 1540 -c 0 -i 33 -a 0 -x {0.0 3.0 18 ------- null}
- -t 0.0805088 -s 0 -d 3 -p tcp -e 1540 -c 0 -i 31 -a 0 -x {0.0 3.0 16 ------- null}
h -t 0.0805088 -s 0 -d 3 -p tcp -e 1540 -c 0 -i 31 -a 0 -x {0.0 3.0 -1 ------- null}
r -t 0.080632 -s 3 -d 0 -p ack -e 40 -c 0 -i 24 -a 0 -x {3.0 0.0 9 ------- null}
+ -t 0.080632 -s 0 -d 3 -p tcp -e 1540 -c 0 -i 34 -a 0 -x {0.0 3.0 19 ------- null}
+ -t 0.080632 -s 0 -d 3 -p tcp -e 1540 -c 0 -i 35 -a 0 -x {0.0 3.0 20 ------- null}
- -t 0.080632 -s 0 -d 3 -p tcp -e 1540 -c 0 -i 32 -a 0 -x {0.0 3.0 17 ------- null}
h -t 0.080632 -s 0 -d 3 -p tcp -e 1540 -c 0 -i 32 -a 0 -x {0.0 3.0 -1 ------- null}
r -t 0.0807552 -s 3 -d 0 -p ack -e 40 -c 0 -i 25 -a 0 -x {3.0 0.0 10 ------- null}
+ -t 0.0807552 -s 0 -d 3 -p tcp -e 1540 -c 0 -i 36 -a 0 -x {0.0 3.0 21 ------- null}
+ -t 0.0807552 -s 0 -d 3 -p tcp -e 1540 -c 0 -i 37 -a 0 -x {0.0 3.0 22 ------- null}
- -t 0.0807552 -s 0 -d 3 -p tcp -e 1540 -c 0 -i 33 -a 0 -x {0.0 3.0 18 ------- null}
h -t 0.0807552 -s 0 -d 3 -p tcp -e 1540 -c 0 -i 33 -a 0 -x {0.0 3.0 -1 ------- null}
r -t 0.0808784 -s 3 -d 0 -p ack -e 40 -c 0 -i 26 -a 0 -x {3.0 0.0 11 ------- null}
+ -t 0.0808784 -s 0 -d 3 -p tcp -e 1540 -c 0 -i 38 -a 0 -x {0.0 3.0 23 ------- null}
+ -t 0.0808784 -s 0 -d 3 -p tcp -e 1540 -c 0 -i 39 -a 0 -x {0.0 3.0 24 ------- null}
- -t 0.0808784 -s 0 -d 3 -p tcp -e 1540 -c 0 -i 34 -a 0 -x {0.0 3.0 19 ------- null}
h -t 0.0808784 -s 0 -d 3 -p tcp -e 1540 -c 0 -i 34 -a 0 -x {0.0 3.0 -1 ------- null}
r -t 0.0810016 -s 3 -d 0 -p ack -e 40 -c 0 -i 27 -a 0 -x {3.0 0.0 12 ------- null}
+ -t 0.0810016 -s 0 -d 3 -p tcp -e 1540 -c 0 -i 40 -a 0 -x {0.0 3.0 25 ------- null}
+ -t 0.0810016 -s 0 -d 3 -p tcp -e 1540 -c 0 -i 41 -a 0 -x {0.0 3.0 26 ------- null}
- -t 0.0810016 -s 0 -d 3 -p tcp -e 1540 -c 0 -i 35 -a 0 -x {0.0 3.0 20 ------- null}
h -t 0.0810016 -s 0 -d 3 -p tcp -e 1540 -c 0 -i 35 -a 0 -x {0.0 3.0 -1 ------- null}
r -t 0.0811248 -s 3 -d 0 -p ack -e 40 -c 0 -i 28 -a 0 -x {3.0 0.0 13 ------- null}
+ -t 0.0811248 -s 0 -d 3 -p tcp -e 1540 -c 0 -i 42 -a 0 -x {0.0 3.0 27 ------- null}
+ -t 0.0811248 -s 0 -d 3 -p tcp -e 1540 -c 0 -i 43 -a 0 -x {0.0 3.0 28 ------- null}
- -t 0.0811248 -s 0 -d 3 -p tcp -e 1540 -c 0 -i 36 -a 0 -x {0.0 3.0 21 ------- null}
h -t 0.0811248 -s 0 -d 3 -p tcp -e 1540 -c 0 -i 36 -a 0 -x {0.0 3.0 -1 ------- null}
r -t 0.081248 -s 3 -d 0 -p ack -e 40 -c 0 -i 29 -a 0 -x {3.0 0.0 14 ------- null}
+ -t 0.081248 -s 0 -d 3 -p tcp -e 1540 -c 0 -i 44 -a 0 -x {0.0 3.0 29 ------- null}
+ -t 0.081248 -s 0 -d 3 -p tcp -e 1540 -c 0 -i 45 -a 0 -x {0.0 3.0 30 ------- null}
- -t 0.081248 -s 0 -d 3 -p tcp -e 1540 -c 0 -i 37 -a 0 -x {0.0 3.0 22 ------- null}
h -t 0.081248 -s 0 -d 3 -p tcp -e 1540 -c 0 -i 37 -a 0 -x {0.0 3.0 -1 ------- null}
- -t 0.0813712 -s 0 -d 3 -p tcp -e 1540 -c 0 -i 38 -a 0 -x {0.0 3.0 23 ------- null}
h -t 0.0813712 -s 0 -d 3 -p tcp -e 1540 -c 0 -i 38 -a 0 -x {0.0 3.0 -1 ------- null}
- -t 0.0814944 -s 0 -d 3 -p tcp -e 1540 -c 0 -i 39 -a 0 -x {0.0 3.0 24 ------- null}
h -t 0.0814944 -s 0 -d 3 -p tcp -e 1540 -c 0 -i 39 -a 0 -x {0.0 3.0 -1 ------- null}
- -t 0.0816176 -s 0 -d 3 -p tcp -e 1540 -c 0 -i 40 -a 0 -x {0.0 3.0 25 ------- null}
h -t 0.0816176 -s 0 -d 3 -p tcp -e 1540 -c 0 -i 40 -a 0 -x {0.0 3.0 -1 ------- null}
- -t 0.0817408 -s 0 -d 3 -p tcp -e 1540 -c 0 -i 41 -a 0 -x {0.0 3.0 26 ------- null}
h -t 0.0817408 -s 0 -d 3 -p tcp -e 1540 -c 0 -i 41 -a 0 -x {0.0 3.0 -1 ------- null}
- -t 0.081864 -s 0 -d 3 -p tcp -e 1540 -c 0 -i 42 -a 0 -x {0.0 3.0 27 ------- null}
h -t 0.081864 -s 0 -d 3 -p tcp -e 1540 -c 0 -i 42 -a 0 -x {0.0 3.0 -1 ------- null}
- -t 0.0819872000000001 -s 0 -d 3 -p tcp -e 1540 -c 0 -i 43 -a 0 -x {0.0 3.0 28 ------- null}
h -t 0.0819872000000001 -s 0 -d 3 -p tcp -e 1540 -c 0 -i 43 -a 0 -x {0.0 3.0 -1 ------- null}
- -t 0.0821104000000001 -s 0 -d 3 -p tcp -e 1540 -c 0 -i 44 -a 0 -x {0.0 3.0 29 ------- null}
h -t 0.0821104000000001 -s 0 -d 3 -p tcp -e 1540 -c 0 -i 44 -a 0 -x {0.0 3.0 -1 ------- null}
- -t 0.0822336000000001 -s 0 -d 3 -p tcp -e 1540 -c 0 -i 45 -a 0 -x {0.0 3.0 30 ------- null}
h -t 0.0822336000000001 -s 0 -d 3 -p tcp -e 1540 -c 0 -i 45 -a 0 -x {0.0 3.0 -1 ------- null}
r -t 0.0905088 -s 0 -d 3 -p tcp -e 1540 -c 0 -i 30 -a 0 -x {0.0 3.0 15 ------- null}
+ -t 0.0905088 -s 3 -d 0 -p ack -e 40 -c 0 -i 46 -a 0 -x {3.0 0.0 15 ------- null}
- -t 0.0905088 -s 3 -d 0 -p ack -e 40 -c 0 -i 46 -a 0 -x {3.0 0.0 15 ------- null}
h -t 0.0905088 -s 3 -d 0 -p ack -e 40 -c 0 -i 46 -a 0 -x {3.0 0.0 -1 ------- null}
r -t 0.090632 -s 0 -d 3 -p tcp -e 1540 -c 0 -i 31 -a 0 -x {0.0 3.0 16 ------- null}
+ -t 0.090632 -s 3 -d 0 -p ack -e 40 -c 0 -i 47 -a 0 -x {3.0 0.0 16 ------- null}
- -t 0.090632 -s 3 -d 0 -p ack -e 40 -c 0 -i 47 -a 0 -x {3.0 0.0 16 ------- null}
h -t 0.090632 -s 3 -d 0 -p ack -e 40 -c 0 -i 47 -a 0 -x {3.0 0.0 -1 ------- null}
r -t 0.0907552 -s 0 -d 3 -p tcp -e 1540 -c 0 -i 32 -a 0 -x {0.0 3.0 17 ------- null}
+ -t 0.0907552 -s 3 -d 0 -p ack -e 40 -c 0 -i 48 -a 0 -x {3.0 0.0 17 ------- null}
- -t 0.0907552 -s 3 -d 0 -p ack -e 40 -c 0 -i 48 -a 0 -x {3.0 0.0 17 ------- null}
h -t 0.0907552 -s 3 -d 0 -p ack -e 40 -c 0 -i 48 -a 0 -x {3.0 0.0 -1 ------- null}
r -t 0.0908784 -s 0 -d 3 -p tcp -e 1540 -c 0 -i 33 -a 0 -x {0.0 3.0 18 ------- null}
+ -t 0.0908784 -s 3 -d 0 -p ack -e 40 -c 0 -i 49 -a 0 -x {3.0 0.0 18 ------- null}
- -t 0.0908784 -s 3 -d 0 -p ack -e 40 -c 0 -i 49 -a 0 -x {3.0 0.0 18 ------- null}
h -t 0.0908784 -s 3 -d 0 -p ack -e 40 -c 0 -i 49 -a 0 -x {3.0 0.0 -1 ------- null}
r -t 0.0910016 -s 0 -d 3 -p tcp -e 1540 -c 0 -i 34 -a 0 -x {0.0 3.0 19 ------- null}
+ -t 0.0910016 -s 3 -d 0 -p ack -e 40 -c 0 -i 50 -a 0 -x {3.0 0.0 19 ------- null}
- -t 0.0910016 -s 3 -d 0 -p ack -e 40 -c 0 -i 50 -a 0 -x {3.0 0.0 19 ------- null}
h -t 0.0910016 -s 3 -d 0 -p ack -e 40 -c 0 -i 50 -a 0 -x {3.0 0.0 -1 ------- null}
r -t 0.0911248 -s 0 -d 3 -p tcp -e 1540 -c 0 -i 35 -a 0 -x {0.0 3.0 20 ------- null}
+ -t 0.0911248 -s 3 -d 0 -p ack -e 40 -c 0 -i 51 -a 0 -x {3.0 0.0 20 ------- null}
- -t 0.0911248 -s 3 -d 0 -p ack -e 40 -c 0 -i 51 -a 0 -x {3.0 0.0 20 ------- null}
h -t 0.0911248 -s 3 -d 0 -p ack -e 40 -c 0 -i 51 -a 0 -x {3.0 0.0 -1 ------- null}
r -t 0.091248 -s 0 -d 3 -p tcp -e 1540 -c 0 -i 36 -a 0 -x {0.0 3.0 21 ------- null}
+ -t 0.091248 -s 3 -d 0 -p ack -e 40 -c 0 -i 52 -a 0 -x {3.0 0.0 21 ------- null}
- -t 0.091248 -s 3 -d 0 -p ack -e 40 -c 0 -i 52 -a 0 -x {3.0 0.0 21 ------- null}
h -t 0.091248 -s 3 -d 0 -p ack -e 40 -c 0 -i 52 -a 0 -x {3.0 0.0 -1 ------- null}
r -t 0.0913712 -s 0 -d 3 -p tcp -e 1540 -c 0 -i 37 -a 0 -x {0.0 3.0 22 ------- null}
+ -t 0.0913712 -s 3 -d 0 -p ack -e 40 -c 0 -i 53 -a 0 -x {3.0 0.0 22 ------- null}
- -t 0.0913712 -s 3 -d 0 -p ack -e 40 -c 0 -i 53 -a 0 -x {3.0 0.0 22 ------- null}
h -t 0.0913712 -s 3 -d 0 -p ack -e 40 -c 0 -i 53 -a 0 -x {3.0 0.0 -1 ------- null}
r -t 0.0914944 -s 0 -d 3 -p tcp -e 1540 -c 0 -i 38 -a 0 -x {0.0 3.0 23 ------- null}
+ -t 0.0914944 -s 3 -d 0 -p ack -e 40 -c 0 -i 54 -a 0 -x {3.0 0.0 23 ------- null}
- -t 0.0914944 -s 3 -d 0 -p ack -e 40 -c 0 -i 54 -a 0 -x {3.0 0.0 23 ------- null}
h -t 0.0914944 -s 3 -d 0 -p ack -e 40 -c 0 -i 54 -a 0 -x {3.0 0.0 -1 ------- null}
r -t 0.0916176 -s 0 -d 3 -p tcp -e 1540 -c 0 -i 39 -a 0 -x {0.0 3.0 24 ------- null}
+ -t 0.0916176 -s 3 -d 0 -p ack -e 40 -c 0 -i 55 -a 0 -x {3.0 0.0 24 ------- null}
- -t 0.0916176 -s 3 -d 0 -p ack -e 40 -c 0 -i 55 -a 0 -x {3.0 0.0 24 ------- null}
h -t 0.0916176 -s 3 -d 0 -p ack -e 40 -c 0 -i 55 -a 0 -x {3.0 0.0 -1 ------- null}
r -t 0.0917408 -s 0 -d 3 -p tcp -e 1540 -c 0 -i 40 -a 0 -x {0.0 3.0 25 ------- null}
+ -t 0.0917408 -s 3 -d 0 -p ack -e 40 -c 0 -i 56 -a 0 -x {3.0 0.0 25 ------- null}
- -t 0.0917408 -s 3 -d 0 -p ack -e 40 -c 0 -i 56 -a 0 -x {3.0 0.0 25 ------- null}
h -t 0.0917408 -s 3 -d 0 -p ack -e 40 -c 0 -i 56 -a 0 -x {3.0 0.0 -1 ------- null}
r -t 0.091864 -s 0 -d 3 -p tcp -e 1540 -c 0 -i 41 -a 0 -x {0.0 3.0 26 ------- null}
+ -t 0.091864 -s 3 -d 0 -p ack -e 40 -c 0 -i 57 -a 0 -x {3.0 0.0 26 ------- null}
- -t 0.091864 -s 3 -d 0 -p ack -e 40 -c 0 -i 57 -a 0 -x {3.0 0.0 26 ------- null}
h -t 0.091864 -s 3 -d 0 -p ack -e 40 -c 0 -i 57 -a 0 -x {3.0 0.0 -1 ------- null}
r -t 0.0919872 -s 0 -d 3 -p tcp -e 1540 -c 0 -i 42 -a 0 -x {0.0 3.0 27 ------- null}
+ -t 0.0919872 -s 3 -d 0 -p ack -e 40 -c 0 -i 58 -a 0 -x {3.0 0.0 27 ------- null}
- -t 0.0919872 -s 3 -d 0 -p ack -e 40 -c 0 -i 58 -a 0 -x {3.0 0.0 27 ------- null}
h -t 0.0919872 -s 3 -d 0 -p ack -e 40 -c 0 -i 58 -a 0 -x {3.0 0.0 -1 ------- null}
r -t 0.0921104000000001 -s 0 -d 3 -p tcp -e 1540 -c 0 -i 43 -a 0 -x {0.0 3.0 28 ------- null}
+ -t 0.0921104000000001 -s 3 -d 0 -p ack -e 40 -c 0 -i 59 -a 0 -x {3.0 0.0 28 ------- null}
- -t 0.0921104000000001 -s 3 -d 0 -p ack -e 40 -c 0 -i 59 -a 0 -x {3.0 0.0 28 ------- null}
h -t 0.0921104000000001 -s 3 -d 0 -p ack -e 40 -c 0 -i 59 -a 0 -x {3.0 0.0 -1 ------- null}
r -t 0.0922336000000001 -s 0 -d 3 -p tcp -e 1540 -c 0 -i 44 -a 0 -x {0.0 3.0 29 ------- null}
+ -t 0.0922336000000001 -s 3 -d 0 -p ack -e 40 -c 0 -i 60 -a 0 -x {3.0 0.0 29 ------- null}
- -t 0.0922336000000001 -s 3 -d 0 -p ack -e 40 -c 0 -i 60 -a 0 -x {3.0 0.0 29 ------- null}
h -t 0.0922336000000001 -s 3 -d 0 -p ack -e 40 -c 0 -i 60 -a 0 -x {3.0 0.0 -1 ------- null}
r -t 0.0923568000000001 -s 0 -d 3 -p tcp -e 1540 -c 0 -i 45 -a 0 -x {0.0 3.0 30 ------- null}
+ -t 0.0923568000000001 -s 3 -d 0 -p ack -e 40 -c 0 -i 61 -a 0 -x {3.0 0.0 30 ------- null}
- -t 0.0923568000000001 -s 3 -d 0 -p ack -e 40 -c 0 -i 61 -a 0 -x {3.0 0.0 30 ------- null}
h -t 0.0923568000000001 -s 3 -d 0 -p ack -e 40 -c 0 -i 61 -a 0 -x {3.0 0.0 -1 ------- null}
r -t 0.100512 -s 3 -d 0 -p ack -e 40 -c 0 -i 46 -a 0 -x {3.0 0.0 15 ------- null}
+ -t 0.100512 -s 0 -d 3 -p tcp -e 1540 -c 0 -i 62 -a 0 -x {0.0 3.0 31 ------- null}
- -t 0.100512 -s 0 -d 3 -p tcp -e 1540 -c 0 -i 62 -a 0 -x {0.0 3.0 31 ------- null}
h -t 0.100512 -s 0 -d 3 -p tcp -e 1540 -c 0 -i 62 -a 0 -x {0.0 3.0 -1 ------- null}
+ -t 0.100512 -s 0 -d 3 -p tcp -e 1540 -c 0 -i 63 -a 0 -x {0.0 3.0 32 ------- null}
r -t 0.1006352 -s 3 -d 0 -p ack -e 40 -c 0 -i 47 -a 0 -x {3.0 0.0 16 ------- null}
+ -t 0.1006352 -s 0 -d 3 -p tcp -e 1540 -c 0 -i 64 -a 0 -x {0.0 3.0 33 ------- null}
+ -t 0.1006352 -s 0 -d 3 -p tcp -e 1540 -c 0 -i 65 -a 0 -x {0.0 3.0 34 ------- null}
- -t 0.1006352 -s 0 -d 3 -p tcp -e 1540 -c 0 -i 63 -a 0 -x {0.0 3.0 32 ------- null}
h -t 0.1006352 -s 0 -d 3 -p tcp -e 1540 -c 0 -i 63 -a 0 -x {0.0 3.0 -1 ------- null}
r -t 0.1007584 -s 3 -d 0 -p ack -e 40 -c 0 -i 48 -a 0 -x {3.0 0.0 17 ------- null}
+ -t 0.1007584 -s 0 -d 3 -p tcp -e 1540 -c 0 -i 66 -a 0 -x {0.0 3.0 35 ------- null}
+ -t 0.1007584 -s 0 -d 3 -p tcp -e 1540 -c 0 -i 67 -a 0 -x {0.0 3.0 36 ------- null}
- -t 0.1007584 -s 0 -d 3 -p tcp -e 1540 -c 0 -i 64 -a 0 -x {0.0 3.0 33 ------- null}
h -t 0.1007584 -s 0 -d 3 -p tcp -e 1540 -c 0 -i 64 -a 0 -x {0.0 3.0 -1 ------- null}
r -t 0.1008816 -s 3 -d 0 -p ack -e 40 -c 0 -i 49 -a 0 -x {3.0 0.0 18 ------- null}
+ -t 0.1008816 -s 0 -d 3 -p tcp -e 1540 -c 0 -i 68 -a 0 -x {0.0 3.0 37 ------- null}
+ -t 0.1008816 -s 0 -d 3 -p tcp -e 1540 -c 0 -i 69 -a 0 -x {0.0 3.0 38 ------- null}
- -t 0.1008816 -s 0 -d 3 -p tcp -e 1540 -c 0 -i 65 -a 0 -x {0.0 3.0 34 ------- null}
h -t 0.1008816 -s 0 -d 3 -p tcp -e 1540 -c 0 -i 65 -a 0 -x {0.0 3.0 -1 ------- null}
r -t 0.1010048 -s 3 -d 0 -p ack -e 40 -c 0 -i 50 -a 0 -x {3.0 0.0 19 ------- null}
+ -t 0.1010048 -s 0 -d 3 -p tcp -e 1540 -c 0 -i 70 -a 0 -x {0.0 3.0 39 ------- null}
- -t 0.1010048 -s 0 -d 3 -p tcp -e 1540 -c 0 -i 66 -a 0 -x {0.0 3.0 35 ------- null}
h -t 0.1010048 -s 0 -d 3 -p tcp -e 1540 -c 0 -i 66 -a 0 -x {0.0 3.0 -1 ------- null}
r -t 0.101128 -s 3 -d 0 -p ack -e 40 -c 0 -i 51 -a 0 -x {3.0 0.0 20 ------- null}
+ -t 0.101128 -s 0 -d 3 -p tcp -e 1540 -c 0 -i 71 -a 0 -x {0.0 3.0 40 ------- null}
- -t 0.101128 -s 0 -d 3 -p tcp -e 1540 -c 0 -i 67 -a 0 -x {0.0 3.0 36 ------- null}
h -t 0.101128 -s 0 -d 3 -p tcp -e 1540 -c 0 -i 67 -a 0 -x {0.0 3.0 -1 ------- null}
r -t 0.1012512 -s 3 -d 0 -p ack -e 40 -c 0 -i 52 -a 0 -x {3.0 0.0 21 ------- null}
+ -t 0.1012512 -s 0 -d 3 -p tcp -e 1540 -c 0 -i 72 -a 0 -x {0.0 3.0 41 ------- null}
- -t 0.1012512 -s 0 -d 3 -p tcp -e 1540 -c 0 -i 68 -a 0 -x {0.0 3.0 37 ------- null}
h -t 0.1012512 -s 0 -d 3 -p tcp -e 1540 -c 0 -i 68 -a 0 -x {0.0 3.0 -1 ------- null}
r -t 0.1013744 -s 3 -d 0 -p ack -e 40 -c 0 -i 53 -a 0 -x {3.0 0.0 22 ------- null}
+ -t 0.1013744 -s 0 -d 3 -p tcp -e 1540 -c 0 -i 73 -a 0 -x {0.0 3.0 42 ------- null}
- -t 0.1013744 -s 0 -d 3 -p tcp -e 1540 -c 0 -i 69 -a 0 -x {0.0 3.0 38 ------- null}
h -t 0.1013744 -s 0 -d 3 -p tcp -e 1540 -c 0 -i 69 -a 0 -x {0.0 3.0 -1 ------- null}
r -t 0.1014976 -s 3 -d 0 -p ack -e 40 -c 0 -i 54 -a 0 -x {3.0 0.0 23 ------- null}
+ -t 0.1014976 -s 0 -d 3 -p tcp -e 1540 -c 0 -i 74 -a 0 -x {0.0 3.0 43 ------- null}
- -t 0.1014976 -s 0 -d 3 -p tcp -e 1540 -c 0 -i 70 -a 0 -x {0.0 3.0 39 ------- null}
h -t 0.1014976 -s 0 -d 3 -p tcp -e 1540 -c 0 -i 70 -a 0 -x {0.0 3.0 -1 ------- null}
r -t 0.1016208 -s 3 -d 0 -p ack -e 40 -c 0 -i 55 -a 0 -x {3.0 0.0 24 ------- null}
+ -t 0.1016208 -s 0 -d 3 -p tcp -e 1540 -c 0 -i 75 -a 0 -x {0.0 3.0 44 ------- null}
- -t 0.1016208 -s 0 -d 3 -p tcp -e 1540 -c 0 -i 71 -a 0 -x {0.0 3.0 40 ------- null}
h -t 0.1016208 -s 0 -d 3 -p tcp -e 1540 -c 0 -i 71 -a 0 -x {0.0 3.0 -1 ------- null}
r -t 0.101744 -s 3 -d 0 -p ack -e 40 -c 0 -i 56 -a 0 -x {3.0 0.0 25 ------- null}
+ -t 0.101744 -s 0 -d 3 -p tcp -e 1540 -c 0 -i 76 -a 0 -x {0.0 3.0 45 ------- null}
- -t 0.101744 -s 0 -d 3 -p tcp -e 1540 -c 0 -i 72 -a 0 -x {0.0 3.0 41 ------- null}
h -t 0.101744 -s 0 -d 3 -p tcp -e 1540 -c 0 -i 72 -a 0 -x {0.0 3.0 -1 ------- null}
r -t 0.1018672 -s 3 -d 0 -p ack -e 40 -c 0 -i 57 -a 0 -x {3.0 0.0 26 ------- null}
+ -t 0.1018672 -s 0 -d 3 -p tcp -e 1540 -c 0 -i 77 -a 0 -x {0.0 3.0 46 ------- null}
- -t 0.1018672 -s 0 -d 3 -p tcp -e 1540 -c 0 -i 73 -a 0 -x {0.0 3.0 42 ------- null}
h -t 0.1018672 -s 0 -d 3 -p tcp -e 1540 -c 0 -i 73 -a 0 -x {0.0 3.0 -1 ------- null}
r -t 0.1019904 -s 3 -d 0 -p ack -e 40 -c 0 -i 58 -a 0 -x {3.0 0.0 27 ------- null}
+ -t 0.1019904 -s 0 -d 3 -p tcp -e 1540 -c 0 -i 78 -a 0 -x {0.0 3.0 47 ------- null}
- -t 0.1019904 -s 0 -d 3 -p tcp -e 1540 -c 0 -i 74 -a 0 -x {0.0 3.0 43 ------- null}
h -t 0.1019904 -s 0 -d 3 -p tcp -e 1540 -c 0 -i 74 -a 0 -x {0.0 3.0 -1 ------- null}
r -t 0.1021136 -s 3 -d 0 -p ack -e 40 -c 0 -i 59 -a 0 -x {3.0 0.0 28 ------- null}
+ -t 0.1021136 -s 0 -d 3 -p tcp -e 1540 -c 0 -i 79 -a 0 -x {0.0 3.0 48 ------- null}
- -t 0.1021136 -s 0 -d 3 -p tcp -e 1540 -c 0 -i 75 -a 0 -x {0.0 3.0 44 ------- null}
h -t 0.1021136 -s 0 -d 3 -p tcp -e 1540 -c 0 -i 75 -a 0 -x {0.0 3.0 -1 ------- null}
r -t 0.1022368 -s 3 -d 0 -p ack -e 40 -c 0 -i 60 -a 0 -x {3.0 0.0 29 ------- null}
+ -t 0.1022368 -s 0 -d 3 -p tcp -e 1540 -c 0 -i 80 -a 0 -x {0.0 3.0 49 ------- null}
- -t 0.1022368 -s 0 -d 3 -p tcp -e 1540 -c 0 -i 76 -a 0 -x {0.0 3.0 45 ------- null}
h -t 0.1022368 -s 0 -d 3 -p tcp -e 1540 -c 0 -i 76 -a 0 -x {0.0 3.0 -1 ------- null}
r -t 0.10236 -s 3 -d 0 -p ack -e 40 -c 0 -i 61 -a 0 -x {3.0 0.0 30 ------- null}
+ -t 0.10236 -s 0 -d 3 -p tcp -e 1540 -c 0 -i 81 -a 0 -x {0.0 3.0 50 ------- null}
- -t 0.10236 -s 0 -d 3 -p tcp -e 1540 -c 0 -i 77 -a 0 -x {0.0 3.0 46 ------- null}
h -t 0.10236 -s 0 -d 3 -p tcp -e 1540 -c 0 -i 77 -a 0 -x {0.0 3.0 -1 ------- null}
- -t 0.1024832 -s 0 -d 3 -p tcp -e 1540 -c 0 -i 78 -a 0 -x {0.0 3.0 47 ------- null}
h -t 0.1024832 -s 0 -d 3 -p tcp -e 1540 -c 0 -i 78 -a 0 -x {0.0 3.0 -1 ------- null}
- -t 0.1026064 -s 0 -d 3 -p tcp -e 1540 -c 0 -i 79 -a 0 -x {0.0 3.0 48 ------- null}
h -t 0.1026064 -s 0 -d 3 -p tcp -e 1540 -c 0 -i 79 -a 0 -x {0.0 3.0 -1 ------- null}
- -t 0.1027296 -s 0 -d 3 -p tcp -e 1540 -c 0 -i 80 -a 0 -x {0.0 3.0 49 ------- null}
h -t 0.1027296 -s 0 -d 3 -p tcp -e 1540 -c 0 -i 80 -a 0 -x {0.0 3.0 -1 ------- null}
- -t 0.1028528 -s 0 -d 3 -p tcp -e 1540 -c 0 -i 81 -a 0 -x {0.0 3.0 50 ------- null}
h -t 0.1028528 -s 0 -d 3 -p tcp -e 1540 -c 0 -i 81 -a 0 -x {0.0 3.0 -1 ------- null}
r -t 0.1106352 -s 0 -d 3 -p tcp -e 1540 -c 0 -i 62 -a 0 -x {0.0 3.0 31 ------- null}
+ -t 0.1106352 -s 3 -d 0 -p ack -e 40 -c 0 -i 82 -a 0 -x {3.0 0.0 31 ------- null}
- -t 0.1106352 -s 3 -d 0 -p ack -e 40 -c 0 -i 82 -a 0 -x {3.0 0.0 31 ------- null}
h -t 0.1106352 -s 3 -d 0 -p ack -e 40 -c 0 -i 82 -a 0 -x {3.0 0.0 -1 ------- null}
r -t 0.1107584 -s 0 -d 3 -p tcp -e 1540 -c 0 -i 63 -a 0 -x {0.0 3.0 32 ------- null}
+ -t 0.1107584 -s 3 -d 0 -p ack -e 40 -c 0 -i 83 -a 0 -x {3.0 0.0 32 ------- null}
- -t 0.1107584 -s 3 -d 0 -p ack -e 40 -c 0 -i 83 -a 0 -x {3.0 0.0 32 ------- null}
h -t 0.1107584 -s 3 -d 0 -p ack -e 40 -c 0 -i 83 -a 0 -x {3.0 0.0 -1 ------- null}
r -t 0.1108816 -s 0 -d 3 -p tcp -e 1540 -c 0 -i 64 -a 0 -x {0.0 3.0 33 ------- null}
+ -t 0.1108816 -s 3 -d 0 -p ack -e 40 -c 0 -i 84 -a 0 -x {3.0 0.0 33 ------- null}
- -t 0.1108816 -s 3 -d 0 -p ack -e 40 -c 0 -i 84 -a 0 -x {3.0 0.0 33 ------- null}
h -t 0.1108816 -s 3 -d 0 -p ack -e 40 -c 0 -i 84 -a 0 -x {3.0 0.0 -1 ------- null}
r -t 0.1110048 -s 0 -d 3 -p tcp -e 1540 -c 0 -i 65 -a 0 -x {0.0 3.0 34 ------- null}
+ -t 0.1110048 -s 3 -d 0 -p ack -e 40 -c 0 -i 85 -a 0 -x {3.0 0.0 34 ------- null}
- -t 0.1110048 -s 3 -d 0 -p ack -e 40 -c 0 -i 85 -a 0 -x {3.0 0.0 34 ------- null}
h -t 0.1110048 -s 3 -d 0 -p ack -e 40 -c 0 -i 85 -a 0 -x {3.0 0.0 -1 ------- null}
r -t 0.111128 -s 0 -d 3 -p tcp -e 1540 -c 0 -i 66 -a 0 -x {0.0 3.0 35 ------- null}
+ -t 0.111128 -s 3 -d 0 -p ack -e 40 -c 0 -i 86 -a 0 -x {3.0 0.0 35 ------- null}
- -t 0.111128 -s 3 -d 0 -p ack -e 40 -c 0 -i 86 -a 0 -x {3.0 0.0 35 ------- null}
h -t 0.111128 -s 3 -d 0 -p ack -e 40 -c 0 -i 86 -a 0 -x {3.0 0.0 -1 ------- null}
r -t 0.1112512 -s 0 -d 3 -p tcp -e 1540 -c 0 -i 67 -a 0 -x {0.0 3.0 36 ------- null}
+ -t 0.1112512 -s 3 -d 0 -p ack -e 40 -c 0 -i 87 -a 0 -x {3.0 0.0 36 ------- null}
- -t 0.1112512 -s 3 -d 0 -p ack -e 40 -c 0 -i 87 -a 0 -x {3.0 0.0 36 ------- null}
h -t 0.1112512 -s 3 -d 0 -p ack -e 40 -c 0 -i 87 -a 0 -x {3.0 0.0 -1 ------- null}
r -t 0.1113744 -s 0 -d 3 -p tcp -e 1540 -c 0 -i 68 -a 0 -x {0.0 3.0 37 ------- null}
+ -t 0.1113744 -s 3 -d 0 -p ack -e 40 -c 0 -i 88 -a 0 -x {3.0 0.0 37 ------- null}
- -t 0.1113744 -s 3 -d 0 -p ack -e 40 -c 0 -i 88 -a 0 -x {3.0 0.0 37 ------- null}
h -t 0.1113744 -s 3 -d 0 -p ack -e 40 -c 0 -i 88 -a 0 -x {3.0 0.0 -1 ------- null}
r -t 0.1114976 -s 0 -d 3 -p tcp -e 1540 -c 0 -i 69 -a 0 -x {0.0 3.0 38 ------- null}
+ -t 0.1114976 -s 3 -d 0 -p ack -e 40 -c 0 -i 89 -a 0 -x {3.0 0.0 38 ------- null}
- -t 0.1114976 -s 3 -d 0 -p ack -e 40 -c 0 -i 89 -a 0 -x {3.0 0.0 38 ------- null}
h -t 0.1114976 -s 3 -d 0 -p ack -e 40 -c 0 -i 89 -a 0 -x {3.0 0.0 -1 ------- null}
r -t 0.1116208 -s 0 -d 3 -p tcp -e 1540 -c 0 -i 70 -a 0 -x {0.0 3.0 39 ------- null}
+ -t 0.1116208 -s 3 -d 0 -p ack -e 40 -c 0 -i 90 -a 0 -x {3.0 0.0 39 ------- null}
- -t 0.1116208 -s 3 -d 0 -p ack -e 40 -c 0 -i 90 -a 0 -x {3.0 0.0 39 ------- null}
h -t 0.1116208 -s 3 -d 0 -p ack -e 40 -c 0 -i 90 -a 0 -x {3.0 0.0 -1 ------- null}
r -t 0.111744 -s 0 -d 3 -p tcp -e 1540 -c 0 -i 71 -a 0 -x {0.0 3.0 40 ------- null}