+ 0 0 3 tcp 40 ------- 0 0.0 3.0 0 0
- 0 0 3 tcp 40 ------- 0 0.0 3.0 0 0
r 0.010003 0 3 tcp 40 ------- 0 0.0 3.0 0 0
+ 0.010003 3 0 ack 40 ------- 0 3.0 0.0 0 1
- 0.010003 3 0 ack 40 ------- 0 3.0 0.0 0 1
r 0.020006 3 0 ack 40 ------- 0 3.0 0.0 0 1
+ 0.020006 0 3 tcp 1540 ------- 0 0.0 3.0 1 2
- 0.020006 0 3 tcp 1540 ------- 0 0.0 3.0 1 2
+ 0.020006 0 3 tcp 1540 ------- 0 0.0 3.0 2 3
- 0.02013 0 3 tcp 1540 ------- 0 0.0 3.0 2 3
r 0.03013 0 3 tcp 1540 ------- 0 0.0 3.0 1 2
+ 0.03013 3 0 ack 40 ------- 0 3.0 0.0 1 4
- 0.03013 3 0 ack 40 ------- 0 3.0 0.0 1 4
r 0.030253 0 3 tcp 1540 ------- 0 0.0 3.0 2 3
+ 0.030253 3 0 ack 40 ------- 0 3.0 0.0 2 5
- 0.030253 3 0 ack 40 ------- 0 3.0 0.0 2 5
r 0.040133 3 0 ack 40 ------- 0 3.0 0.0 1 4
+ 0.040133 0 3 tcp 1540 ------- 0 0.0 3.0 3 6
- 0.040133 0 3 tcp 1540 ------- 0 0.0 3.0 3 6
+ 0.040133 0 3 tcp 1540 ------- 0 0.0 3.0 4 7
- 0.040256 0 3 tcp 1540 ------- 0 0.0 3.0 4 7
r 0.040256 3 0 ack 40 ------- 0 3.0 0.0 2 5
+ 0.040256 0 3 tcp 1540 ------- 0 0.0 3.0 5 8
+ 0.040256 0 3 tcp 1540 ------- 0 0.0 3.0 6 9
- 0.040379 0 3 tcp 1540 ------- 0 0.0 3.0 5 8
- 0.040502 0 3 tcp 1540 ------- 0 0.0 3.0 6 9
r 0.050256 0 3 tcp 1540 ------- 0 0.0 3.0 3 6
+ 0.050256 3 0 ack 40 ------- 0 3.0 0.0 3 10
- 0.050256 3 0 ack 40 ------- 0 3.0 0.0 3 10
r 0.050379 0 3 tcp 1540 ------- 0 0.0 3.0 4 7
+ 0.050379 3 0 ack 40 ------- 0 3.0 0.0 4 11
- 0.050379 3 0 ack 40 ------- 0 3.0 0.0 4 11
r 0.050502 0 3 tcp 1540 ------- 0 0.0 3.0 5 8
+ 0.050502 3 0 ack 40 ------- 0 3.0 0.0 5 12
- 0.050502 3 0 ack 40 ------- 0 3.0 0.0 5 12
r 0.050626 0 3 tcp 1540 ------- 0 0.0 3.0 6 9
+ 0.050626 3 0 ack 40 ------- 0 3.0 0.0 6 13
- 0.050626 3 0 ack 40 ------- 0 3.0 0.0 6 13
r 0.060259 3 0 ack 40 ------- 0 3.0 0.0 3 10
+ 0.060259 0 3 tcp 1540 ------- 0 0.0 3.0 7 14
- 0.060259 0 3 tcp 1540 ------- 0 0.0 3.0 7 14
+ 0.060259 0 3 tcp 1540 ------- 0 0.0 3.0 8 15
r 0.060382 3 0 ack 40 ------- 0 3.0 0.0 4 11
+ 0.060382 0 3 tcp 1540 ------- 0 0.0 3.0 9 16
+ 0.060382 0 3 tcp 1540 ------- 0 0.0 3.0 10 17
- 0.060382 0 3 tcp 1540 ------- 0 0.0 3.0 8 15
r 0.060506 3 0 ack 40 ------- 0 3.0 0.0 5 12
+ 0.060506 0 3 tcp 1540 ------- 0 0.0 3.0 11 18
+ 0.060506 0 3 tcp 1540 ------- 0 0.0 3.0 12 19
- 0.060506 0 3 tcp 1540 ------- 0 0.0 3.0 9 16
r 0.060629 3 0 ack 40 ------- 0 3.0 0.0 6 13
+ 0.060629 0 3 tcp 1540 ------- 0 0.0 3.0 13 20
+ 0.060629 0 3 tcp 1540 ------- 0 0.0 3.0 14 21
- 0.060629 0 3 tcp 1540 ------- 0 0.0 3.0 10 17
- 0.060752 0 3 tcp 1540 ------- 0 0.0 3.0 11 18
- 0.060875 0 3 tcp 1540 ------- 0 0.0 3.0 12 19
- 0.060998 0 3 tcp 1540 ------- 0 0.0 3.0 13 20
- 0.061122 0 3 tcp 1540 ------- 0 0.0 3.0 14 21
r 0.070382 0 3 tcp 1540 ------- 0 0.0 3.0 7 14
+ 0.070382 3 0 ack 40 ------- 0 3.0 0.0 7 22
- 0.070382 3 0 ack 40 ------- 0 3.0 0.0 7 22
r 0.070506 0 3 tcp 1540 ------- 0 0.0 3.0 8 15
+ 0.070506 3 0 ack 40 ------- 0 3.0 0.0 8 23
- 0.070506 3 0 ack 40 ------- 0 3.0 0.0 8 23
r 0.070629 0 3 tcp 1540 ------- 0 0.0 3.0 9 16
+ 0.070629 3 0 ack 40 ------- 0 3.0 0.0 9 24
- 0.070629 3 0 ack 40 ------- 0 3.0 0.0 9 24
r 0.070752 0 3 tcp 1540 ------- 0 0.0 3.0 10 17
+ 0.070752 3 0 ack 40 ------- 0 3.0 0.0 10 25
- 0.070752 3 0 ack 40 ------- 0 3.0 0.0 10 25
r 0.070875 0 3 tcp 1540 ------- 0 0.0 3.0 11 18
+ 0.070875 3 0 ack 40 ------- 0 3.0 0.0 11 26
- 0.070875 3 0 ack 40 ------- 0 3.0 0.0 11 26
r 0.070998 0 3 tcp 1540 ------- 0 0.0 3.0 12 19
+ 0.070998 3 0 ack 40 ------- 0 3.0 0.0 12 27
- 0.070998 3 0 ack 40 ------- 0 3.0 0.0 12 27
r 0.071122 0 3 tcp 1540 ------- 0 0.0 3.0 13 20
+ 0.071122 3 0 ack 40 ------- 0 3.0 0.0 13 28
- 0.071122 3 0 ack 40 ------- 0 3.0 0.0 13 28
r 0.071245 0 3 tcp 1540 ------- 0 0.0 3.0 14 21
+ 0.071245 3 0 ack 40 ------- 0 3.0 0.0 14 29
- 0.071245 3 0 ack 40 ------- 0 3.0 0.0 14 29
r 0.080386 3 0 ack 40 ------- 0 3.0 0.0 7 22
+ 0.080386 0 3 tcp 1540 ------- 0 0.0 3.0 15 30
- 0.080386 0 3 tcp 1540 ------- 0 0.0 3.0 15 30
+ 0.080386 0 3 tcp 1540 ------- 0 0.0 3.0 16 31
r 0.080509 3 0 ack 40 ------- 0 3.0 0.0 8 23
+ 0.080509 0 3 tcp 1540 ------- 0 0.0 3.0 17 32
+ 0.080509 0 3 tcp 1540 ------- 0 0.0 3.0 18 33
- 0.080509 0 3 tcp 1540 ------- 0 0.0 3.0 16 31
r 0.080632 3 0 ack 40 ------- 0 3.0 0.0 9 24
+ 0.080632 0 3 tcp 1540 ------- 0 0.0 3.0 19 34
+ 0.080632 0 3 tcp 1540 ------- 0 0.0 3.0 20 35
- 0.080632 0 3 tcp 1540 ------- 0 0.0 3.0 17 32
r 0.080755 3 0 ack 40 ------- 0 3.0 0.0 10 25
+ 0.080755 0 3 tcp 1540 ------- 0 0.0 3.0 21 36
+ 0.080755 0 3 tcp 1540 ------- 0 0.0 3.0 22 37
- 0.080755 0 3 tcp 1540 ------- 0 0.0 3.0 18 33
r 0.080878 3 0 ack 40 ------- 0 3.0 0.0 11 26
+ 0.080878 0 3 tcp 1540 ------- 0 0.0 3.0 23 38
+ 0.080878 0 3 tcp 1540 ------- 0 0.0 3.0 24 39
- 0.080878 0 3 tcp 1540 ------- 0 0.0 3.0 19 34
r 0.081002 3 0 ack 40 ------- 0 3.0 0.0 12 27
+ 0.081002 0 3 tcp 1540 ------- 0 0.0 3.0 25 40
+ 0.081002 0 3 tcp 1540 ------- 0 0.0 3.0 26 41
- 0.081002 0 3 tcp 1540 ------- 0 0.0 3.0 20 35
r 0.081125 3 0 ack 40 ------- 0 3.0 0.0 13 28
+ 0.081125 0 3 tcp 1540 ------- 0 0.0 3.0 27 42
+ 0.081125 0 3 tcp 1540 ------- 0 0.0 3.0 28 43
- 0.081125 0 3 tcp 1540 ------- 0 0.0 3.0 21 36
r 0.081248 3 0 ack 40 ------- 0 3.0 0.0 14 29
+ 0.081248 0 3 tcp 1540 ------- 0 0.0 3.0 29 44
+ 0.081248 0 3 tcp 1540 ------- 0 0.0 3.0 30 45
- 0.081248 0 3 tcp 1540 ------- 0 0.0 3.0 22 37
- 0.081371 0 3 tcp 1540 ------- 0 0.0 3.0 23 38
- 0.081494 0 3 tcp 1540 ------- 0 0.0 3.0 24 39
- 0.081618 0 3 tcp 1540 ------- 0 0.0 3.0 25 40
- 0.081741 0 3 tcp 1540 ------- 0 0.0 3.0 26 41
- 0.081864 0 3 tcp 1540 ------- 0 0.0 3.0 27 42
- 0.081987 0 3 tcp 1540 ------- 0 0.0 3.0 28 43
- 0.08211 0 3 tcp 1540 ------- 0 0.0 3.0 29 44
- 0.082234 0 3 tcp 1540 ------- 0 0.0 3.0 30 45
r 0.090509 0 3 tcp 1540 ------- 0 0.0 3.0 15 30
+ 0.090509 3 0 ack 40 ------- 0 3.0 0.0 15 46
- 0.090509 3 0 ack 40 ------- 0 3.0 0.0 15 46
r 0.090632 0 3 tcp 1540 ------- 0 0.0 3.0 16 31
+ 0.090632 3 0 ack 40 ------- 0 3.0 0.0 16 47
- 0.090632 3 0 ack 40 ------- 0 3.0 0.0 16 47
r 0.090755 0 3 tcp 1540 ------- 0 0.0 3.0 17 32
+ 0.090755 3 0 ack 40 ------- 0 3.0 0.0 17 48
- 0.090755 3 0 ack 40 ------- 0 3.0 0.0 17 48
r 0.090878 0 3 tcp 1540 ------- 0 0.0 3.0 18 33
+ 0.090878 3 0 ack 40 ------- 0 3.0 0.0 18 49
- 0.090878 3 0 ack 40 ------- 0 3.0 0.0 18 49
r 0.091002 0 3 tcp 1540 ------- 0 0.0 3.0 19 34
+ 0.091002 3 0 ack 40 ------- 0 3.0 0.0 19 50
- 0.091002 3 0 ack 40 ------- 0 3.0 0.0 19 50
r 0.091125 0 3 tcp 1540 ------- 0 0.0 3.0 20 35
+ 0.091125 3 0 ack 40 ------- 0 3.0 0.0 20 51
- 0.091125 3 0 ack 40 ------- 0 3.0 0.0 20 51
r 0.091248 0 3 tcp 1540 ------- 0 0.0 3.0 21 36
+ 0.091248 3 0 ack 40 ------- 0 3.0 0.0 21 52
- 0.091248 3 0 ack 40 ------- 0 3.0 0.0 21 52
r 0.091371 0 3 tcp 1540 ------- 0 0.0 3.0 22 37
+ 0.091371 3 0 ack 40 ------- 0 3.0 0.0 22 53
- 0.091371 3 0 ack 40 ------- 0 3.0 0.0 22 53
r 0.091494 0 3 tcp 1540 ------- 0 0.0 3.0 23 38
+ 0.091494 3 0 ack 40 ------- 0 3.0 0.0 23 54
- 0.091494 3 0 ack 40 ------- 0 3.0 0.0 23 54
r 0.091618 0 3 tcp 1540 ------- 0 0.0 3.0 24 39
+ 0.091618 3 0 ack 40 ------- 0 3.0 0.0 24 55
- 0.091618 3 0 ack 40 ------- 0 3.0 0.0 24 55
r 0.091741 0 3 tcp 1540 ------- 0 0.0 3.0 25 40
+ 0.091741 3 0 ack 40 ------- 0 3.0 0.0 25 56
- 0.091741 3 0 ack 40 ------- 0 3.0 0.0 25 56
r 0.091864 0 3 tcp 1540 ------- 0 0.0 3.0 26 41
+ 0.091864 3 0 ack 40 ------- 0 3.0 0.0 26 57
- 0.091864 3 0 ack 40 ------- 0 3.0 0.0 26 57
r 0.091987 0 3 tcp 1540 ------- 0 0.0 3.0 27 42
+ 0.091987 3 0 ack 40 ------- 0 3.0 0.0 27 58
- 0.091987 3 0 ack 40 ------- 0 3.0 0.0 27 58
r 0.09211 0 3 tcp 1540 ------- 0 0.0 3.0 28 43
+ 0.09211 3 0 ack 40 ------- 0 3.0 0.0 28 59
- 0.09211 3 0 ack 40 ------- 0 3.0 0.0 28 59
r 0.092234 0 3 tcp 1540 ------- 0 0.0 3.0 29 44
+ 0.092234 3 0 ack 40 ------- 0 3.0 0.0 29 60
- 0.092234 3 0 ack 40 ------- 0 3.0 0.0 29 60
r 0.092357 0 3 tcp 1540 ------- 0 0.0 3.0 30 45
+ 0.092357 3 0 ack 40 ------- 0 3.0 0.0 30 61
- 0.092357 3 0 ack 40 ------- 0 3.0 0.0 30 61
r 0.100512 3 0 ack 40 ------- 0 3.0 0.0 15 46
+ 0.100512 0 3 tcp 1540 ------- 0 0.0 3.0 31 62
- 0.100512 0 3 tcp 1540 ------- 0 0.0 3.0 31 62
+ 0.100512 0 3 tcp 1540 ------- 0 0.0 3.0 32 63
r 0.100635 3 0 ack 40 ------- 0 3.0 0.0 16 47
+ 0.100635 0 3 tcp 1540 ------- 0 0.0 3.0 33 64
+ 0.100635 0 3 tcp 1540 ------- 0 0.0 3.0 34 65
- 0.100635 0 3 tcp 1540 ------- 0 0.0 3.0 32 63
r 0.100758 3 0 ack 40 ------- 0 3.0 0.0 17 48
+ 0.100758 0 3 tcp 1540 ------- 0 0.0 3.0 35 66
+ 0.100758 0 3 tcp 1540 ------- 0 0.0 3.0 36 67
- 0.100758 0 3 tcp 1540 ------- 0 0.0 3.0 33 64
r 0.100882 3 0 ack 40 ------- 0 3.0 0.0 18 49
+ 0.100882 0 3 tcp 1540 ------- 0 0.0 3.0 37 68
+ 0.100882 0 3 tcp 1540 ------- 0 0.0 3.0 38 69
- 0.100882 0 3 tcp 1540 ------- 0 0.0 3.0 34 65
r 0.101005 3 0 ack 40 ------- 0 3.0 0.0 19 50
+ 0.101005 0 3 tcp 1540 ------- 0 0.0 3.0 39 70
- 0.101005 0 3 tcp 1540 ------- 0 0.0 3.0 35 66
r 0.101128 3 0 ack 40 ------- 0 3.0 0.0 20 51
+ 0.101128 0 3 tcp 1540 ------- 0 0.0 3.0 40 71
- 0.101128 0 3 tcp 1540 ------- 0 0.0 3.0 36 67
r 0.101251 3 0 ack 40 ------- 0 3.0 0.0 21 52
+ 0.101251 0 3 tcp 1540 ------- 0 0.0 3.0 41 72
- 0.101251 0 3 tcp 1540 ------- 0 0.0 3.0 37 68
r 0.101374 3 0 ack 40 ------- 0 3.0 0.0 22 53
+ 0.101374 0 3 tcp 1540 ------- 0 0.0 3.0 42 73
- 0.101374 0 3 tcp 1540 ------- 0 0.0 3.0 38 69
r 0.101498 3 0 ack 40 ------- 0 3.0 0.0 23 54
+ 0.101498 0 3 tcp 1540 ------- 0 0.0 3.0 43 74
- 0.101498 0 3 tcp 1540 ------- 0 0.0 3.0 39 70
r 0.101621 3 0 ack 40 ------- 0 3.0 0.0 24 55
+ 0.101621 0 3 tcp 1540 ------- 0 0.0 3.0 44 75
- 0.101621 0 3 tcp 1540 ------- 0 0.0 3.0 40 71
r 0.101744 3 0 ack 40 ------- 0 3.0 0.0 25 56
+ 0.101744 0 3 tcp 1540 ------- 0 0.0 3.0 45 76
- 0.101744 0 3 tcp 1540 ------- 0 0.0 3.0 41 72
r 0.101867 3 0 ack 40 ------- 0 3.0 0.0 26 57
+ 0.101867 0 3 tcp 1540 ------- 0 0.0 3.0 46 77
- 0.101867 0 3 tcp 1540 ------- 0 0.0 3.0 42 73
r 0.10199 3 0 ack 40 ------- 0 3.0 0.0 27 58
+ 0.10199 0 3 tcp 1540 ------- 0 0.0 3.0 47 78
- 0.10199 0 3 tcp 1540 ------- 0 0.0 3.0 43 74
r 0.102114 3 0 ack 40 ------- 0 3.0 0.0 28 59
+ 0.102114 0 3 tcp 1540 ------- 0 0.0 3.0 48 79
- 0.102114 0 3 tcp 1540 ------- 0 0.0 3.0 44 75
r 0.102237 3 0 ack 40 ------- 0 3.0 0.0 29 60
+ 0.102237 0 3 tcp 1540 ------- 0 0.0 3.0 49 80
- 0.102237 0 3 tcp 1540 ------- 0 0.0 3.0 45 76
r 0.10236 3 0 ack 40 ------- 0 3.0 0.0 30 61
+ 0.10236 0 3 tcp 1540 ------- 0 0.0 3.0 50 81
- 0.10236 0 3 tcp 1540 ------- 0 0.0 3.0 46 77
- 0.102483 0 3 tcp 1540 ------- 0 0.0 3.0 47 78
- 0.102606 0 3 tcp 1540 ------- 0 0.0 3.0 48 79
- 0.10273 0 3 tcp 1540 ------- 0 0.0 3.0 49 80
- 0.102853 0 3 tcp 1540 ------- 0 0.0 3.0 50 81
r 0.110635 0 3 tcp 1540 ------- 0 0.0 3.0 31 62
+ 0.110635 3 0 ack 40 ------- 0 3.0 0.0 31 82
- 0.110635 3 0 ack 40 ------- 0 3.0 0.0 31 82
r 0.110758 0 3 tcp 1540 ------- 0 0.0 3.0 32 63
+ 0.110758 3 0 ack 40 ------- 0 3.0 0.0 32 83
- 0.110758 3 0 ack 40 ------- 0 3.0 0.0 32 83
r 0.110882 0 3 tcp 1540 ------- 0 0.0 3.0 33 64
+ 0.110882 3 0 ack 40 ------- 0 3.0 0.0 33 84
- 0.110882 3 0 ack 40 ------- 0 3.0 0.0 33 84
r 0.111005 0 3 tcp 1540 ------- 0 0.0 3.0 34 65
+ 0.111005 3 0 ack 40 ------- 0 3.0 0.0 34 85
- 0.111005 3 0 ack 40 ------- 0 3.0 0.0 34 85
r 0.111128 0 3 tcp 1540 ------- 0 0.0 3.0 35 66
+ 0.111128 3 0 ack 40 ------- 0 3.0 0.0 35 86
- 0.111128 3 0 ack 40 ------- 0 3.0 0.0 35 86
r 0.111251 0 3 tcp 1540 ------- 0 0.0 3.0 36 67
+ 0.111251 3 0 ack 40 ------- 0 3.0 0.0 36 87
- 0.111251 3 0 ack 40 ------- 0 3.0 0.0 36 87
r 0.111374 0 3 tcp 1540 ------- 0 0.0 3.0 37 68
+ 0.111374 3 0 ack 40 ------- 0 3.0 0.0 37 88
- 0.111374 3 0 ack 40 ------- 0 3.0 0.0 37 88
r 0.111498 0 3 tcp 1540 ------- 0 0.0 3.0 38 69
+ 0.111498 3 0 ack 40 ------- 0 3.0 0.0 38 89
- 0.111498 3 0 ack 40 ------- 0 3.0 0.0 38 89
r 0.111621 0 3 tcp 1540 ------- 0 0.0 3.0 39 70
+ 0.111621 3 0 ack 40 ------- 0 3.0 0.0 39 90
- 0.111621 3 0 ack 40 ------- 0 3.0 0.0 39 90
r 0.111744 0 3 tcp 1540 ------- 0 0.0 3.0 40 71
+ 0.111744 3 0 ack 40 ------- 0 3.0 0.0 40 91
- 0.111744 3 0 ack 40 ------- 0 3.0 0.0 40 91
r 0.111867 0 3 tcp 1540 ------- 0 0.0 3.0 41 72
+ 0.111867 3 0 ack 40 ------- 0 3.0 0.0 41 92
- 0.111867 3 0 ack 40 ------- 0 3.0 0.0 41 92
r 0.11199 0 3 tcp 1540 ------- 0 0.0 3.0 42 73
+ 0.11199 3 0 ack 40 ------- 0 3.0 0.0 42 93
- 0.11199 3 0 ack 40 ------- 0 3.0 0.0 42 93
r 0.112114 0 3 tcp 1540 ------- 0 0.0 3.0 43 74
+ 0.112114 3 0 ack 40 ------- 0 3.0 0.0 43 94
- 0.112114 3 0 ack 40 ------- 0 3.0 0.0 43 94
r 0.112237 0 3 tcp 1540 ------- 0 0.0 3.0 44 75
+ 0.112237 3 0 ack 40 ------- 0 3.0 0.0 44 95
- 0.112237 3 0 ack 40 ------- 0 3.0 0.0 44 95
r 0.11236 0 3 tcp 1540 ------- 0 0.0 3.0 45 76
+ 0.11236 3 0 ack 40 ------- 0 3.0 0.0 45 96
- 0.11236 3 0 ack 40 ------- 0 3.0 0.0 45 96
r 0.112483 0 3 tcp 1540 ------- 0 0.0 3.0 46 77
+ 0.112483 3 0 ack 40 ------- 0 3.0 0.0 46 97
- 0.112483 3 0 ack 40 ------- 0 3.0 0.0 46 97
r 0.112606 0 3 tcp 1540 ------- 0 0.0 3.0 47 78
+ 0.112606 3 0 ack 40 ------- 0 3.0 0.0 47 98
- 0.112606 3 0 ack 40 ------- 0 3.0 0.0 47 98
r 0.11273 0 3 tcp 1540 ------- 0 0.0 3.0 48 79
+ 0.11273 3 0 ack 40 ------- 0 3.0 0.0 48 99
- 0.11273 3 0 ack 40 ------- 0 3.0 0.0 48 99
r 0.112853 0 3 tcp 1540 ------- 0 0.0 3.0 49 80
+ 0.112853 3 0 ack 40 ------- 0 3.0 0.0 49 100
- 0.112853 3 0 ack 40 ------- 0 3.0 0.0 49 100
r 0.112976 0 3 tcp 1540 ------- 0 0.0 3.0 50 81
+ 0.112976 3 0 ack 40 ------- 0 3.0 0.0 50 101
- 0.112976 3 0 ack 40 ------- 0 3.0 0.0 50 101
r 0.120638 3 0 ack 40 ------- 0 3.0 0.0 31 82
+ 0.120638 0 3 tcp 1540 ------- 0 0.0 3.0 51 102
- 0.120638 0 3 tcp 1540 ------- 0 0.0 3.0 51 102
r 0.120762 3 0 ack 40 ------- 0 3.0 0.0 32 83
+ 0.120762 0 3 tcp 1540 ------- 0 0.0 3.0 52 103
- 0.120762 0 3 tcp 1540 ------- 0 0.0 3.0 52 103
r 0.120885 3 0 ack 40 ------- 0 3.0 0.0 33 84
+ 0.120885 0 3 tcp 1540 ------- 0 0.0 3.0 53 104
- 0.120885 0 3 tcp 1540 ------- 0 0.0 3.0 53 104
r 0.121008 3 0 ack 40 ------- 0 3.0 0.0 34 85
+ 0.121008 0 3 tcp 1540 ------- 0 0.0 3.0 54 105
- 0.121008 0 3 tcp 1540 ------- 0 0.0 3.0 54 105
r 0.121131 3 0 ack 40 ------- 0 3.0 0.0 35 86
+ 0.121131 0 3 tcp 1540 ------- 0 0.0 3.0 55 106
- 0.121131 0 3 tcp 1540 ------- 0 0.0 3.0 55 106
r 0.121254 3 0 ack 40 ------- 0 3.0 0.0 36 87
+ 0.121254 0 3 tcp 1540 ------- 0 0.0 3.0 56 107
- 0.121254 0 3 tcp 1540 ------- 0 0.0 3.0 56 107
r 0.121378 3 0 ack 40 ------- 0 3.0 0.0 37 88
+ 0.121378 0 3 tcp 1540 ------- 0 0.0 3.0 57 108
- 0.121378 0 3 tcp 1540 ------- 0 0.0 3.0 57 108
r 0.121501 3 0 ack 40 ------- 0 3.0 0.0 38 89
+ 0.121501 0 3 tcp 1540 ------- 0 0.0 3.0 58 109
- 0.121501 0 3 tcp 1540 ------- 0 0.0 3.0 58 109
r 0.121624 3 0 ack 40 ------- 0 3.0 0.0 39 90
+ 0.121624 0 3 tcp 1540 ------- 0 0.0 3.0 59 110
- 0.121624 0 3 tcp 1540 ------- 0 0.0 3.0 59 110
r 0.121747 3 0 ack 40 ------- 0 3.0 0.0 40 91
+ 0.121747 0 3 tcp 1540 ------- 0 0.0 3.0 60 111
- 0.121747 0 3 tcp 1540 ------- 0 0.0 3.0 60 111
r 0.12187 3 0 ack 40 ------- 0 3.0 0.0 41 92
+ 0.12187 0 3 tcp 1540 ------- 0 0.0 3.0 61 112
- 0.12187 0 3 tcp 1540 ------- 0 0.0 3.0 61 112
r 0.121994 3 0 ack 40 ------- 0 3.0 0.0 42 93
+ 0.121994 0 3 tcp 1540 ------- 0 0.0 3.0 62 113
- 0.121994 0 3 tcp 1540 ------- 0 0.0 3.0 62 113
r 0.122117 3 0 ack 40 ------- 0 3.0 0.0 43 94
+ 0.122117 0 3 tcp 1540 ------- 0 0.0 3.0 63 114
- 0.122117 0 3 tcp 1540 ------- 0 0.0 3.0 63 114
r 0.12224 3 0 ack 40 ------- 0 3.0 0.0 44 95
+ 0.12224 0 3 tcp 1540 ------- 0 0.0 3.0 64 115
- 0.12224 0 3 tcp 1540 ------- 0 0.0 3.0 64 115
r 0.122363 3 0 ack 40 ------- 0 3.0 0.0 45 96
+ 0.122363 0 3 tcp 1540 ------- 0 0.0 3.0 65 116
- 0.122363 0 3 tcp 1540 ------- 0 0.0 3.0 65 116
r 0.122486 3 0 ack 40 ------- 0 3.0 0.0 46 97
+ 0.122486 0 3 tcp 1540 ------- 0 0.0 3.0 66 117
- 0.122486 0 3 tcp 1540 ------- 0 0.0 3.0 66 117
r 0.12261 3 0 ack 40 ------- 0 3.0 0.0 47 98
+ 0.12261 0 3 tcp 1540 ------- 0 0.0 3.0 67 118
- 0.12261 0 3 tcp 1540 ------- 0 0.0 3.0 67 118
r 0.122733 3 0 ack 40 ------- 0 3.0 0.0 48 99
+ 0.122733 0 3 tcp 1540 ------- 0 0.0 3.0 68 119
- 0.122733 0 3 tcp 1540 ------- 0 0.0 3.0 68 119
r 0.122856 3 0 ack 40 ------- 0 3.0 0.0 49 100
+ 0.122856 0 3 tcp 1540 ------- 0 0.0 3.0 69 120
- 0.122856 0 3 tcp 1540 ------- 0 0.0 3.0 69 120
r 0.122979 3 0 ack 40 ------- 0 3.0 0.0 50 101
+ 0.122979 0 3 tcp 1540 ------- 0 0.0 3.0 70 121
- 0.122979 0 3 tcp 1540 ------- 0 0.0 3.0 70 121
r 0.130762 0 3 tcp 1540 ------- 0 0.0 3.0 51 102
+ 0.130762 3 0 ack 40 ------- 0 3.0 0.0 51 122
- 0.130762 3 0 ack 40 ------- 0 3.0 0.0 51 122
r 0.130885 0 3 tcp 1540 ------- 0 0.0 3.0 52 103
+ 0.130885 3 0 ack 40 ------- 0 3.0 0.0 52 123
- 0.130885 3 0 ack 40 ------- 0 3.0 0.0 52 123
r 0.131008 0 3 tcp 1540 ------- 0 0.0 3.0 53 104
+ 0.131008 3 0 ack 40 ------- 0 3.0 0.0 53 124
- 0.131008 3 0 ack 40 ------- 0 3.0 0.0 53 124
r 0.131131 0 3 tcp 1540 ------- 0 0.0 3.0 54 105
+ 0.131131 3 0 ack 40 ------- 0 3.0 0.0 54 125
- 0.131131 3 0 ack 40 ------- 0 3.0 0.0 54 125
r 0.131254 0 3 tcp 1540 ------- 0 0.0 3.0 55 106
+ 0.131254 3 0 ack 40 ------- 0 3.0 0.0 55 126
- 0.131254 3 0 ack 40 ------- 0 3.0 0.0 55 126
r 0.131378 0 3 tcp 1540 ------- 0 0.0 3.0 56 107
+ 0.131378 3 0 ack 40 ------- 0 3.0 0.0 56 127
- 0.131378 3 0 ack 40 ------- 0 3.0 0.0 56 127
r 0.131501 0 3 tcp 1540 ------- 0 0.0 3.0 57 108
+ 0.131501 3 0 ack 40 ------- 0 3.0 0.0 57 128
- 0.131501 3 0 ack 40 ------- 0 3.0 0.0 57 128
r 0.131624 0 3 tcp 1540 ------- 0 0.0 3.0 58 109
+ 0.131624 3 0 ack 40 ------- 0 3.0 0.0 58 129
- 0.131624 3 0 ack 40 ------- 0 3.0 0.0 58 129
r 0.131747 0 3 tcp 1540 ------- 0 0.0 3.0 59 110
+ 0.131747 3 0 ack 40 ------- 0 3.0 0.0 59 130
- 0.131747 3 0 ack 40 ------- 0 3.0 0.0 59 130
r 0.13187 0 3 tcp 1540 ------- 0 0.0 3.0 60 111
+ 0.13187 3 0 ack 40 ------- 0 3.0 0.0 60 131
- 0.13187 3 0 ack 40 ------- 0 3.0 0.0 60 131
r 0.131994 0 3 tcp 1540 ------- 0 0.0 3.0 61 112
+ 0.131994 3 0 ack 40 ------- 0 3.0 0.0 61 132
- 0.131994 3 0 ack 40 ------- 0 3.0 0.0 61 132
r 0.132117 0 3 tcp 1540 ------- 0 0.0 3.0 62 113
+ 0.132117 3 0 ack 40 ------- 0 3.0 0.0 62 133
- 0.132117 3 0 ack 40 ------- 0 3.0 0.0 62 133
r 0.13224 0 3 tcp 1540 ------- 0 0.0 3.0 63 114
+ 0.13224 3 0 ack 40 ------- 0 3.0 0.0 63 134
- 0.13224 3 0 ack 40 ------- 0 3.0 0.0 63 134
r 0.132363 0 3 tcp 1540 ------- 0 0.0 3.0 64 115
+ 0.132363 3 0 ack 40 ------- 0 3.0 0.0 64 135
- 0.132363 3 0 ack 40 ------- 0 3.0 0.0 64 135
r 0.132486 0 3 tcp 1540 ------- 0 0.0 3.0 65 116
+ 0.132486 3 0 ack 40 ------- 0 3.0 0.0 65 136
- 0.132486 3 0 ack 40 ------- 0 3.0 0.0 65 136
r 0.13261 0 3 tcp 1540 ------- 0 0.0 3.0 66 117
+ 0.13261 3 0 ack 40 ------- 0 3.0 0.0 66 137
- 0.13261 3 0 ack 40 ------- 0 3.0 0.0 66 137
r 0.132733 0 3 tcp 1540 ------- 0 0.0 3.0 67 118
+ 0.132733 3 0 ack 40 ------- 0 3.0 0.0 67 138
- 0.132733 3 0 ack 40 ------- 0 3.0 0.0 67 138
r 0.132856 0 3 tcp 1540 ------- 0 0.0 3.0 68 119
+ 0.132856 3 0 ack 40 ------- 0 3.0 0.0 68 139
- 0.132856 3 0 ack 40 ------- 0 3.0 0.0 68 139
r 0.132979 0 3 tcp 1540 ------- 0 0.0 3.0 69 120
+ 0.132979 3 0 ack 40 ------- 0 3.0 0.0 69 140
- 0.132979 3 0 ack 40 ------- 0 3.0 0.0 69 140
r 0.133102 0 3 tcp 1540 ------- 0 0.0 3.0 70 121
+ 0.133102 3 0 ack 40 ------- 0 3.0 0.0 70 141
- 0.133102 3 0 ack 40 ------- 0 3.0 0.0 70 141
r 0.140765 3 0 ack 40 ------- 0 3.0 0.0 51 122
+ 0.140765 0 3 tcp 1540 ------- 0 0.0 3.0 71 142
- 0.140765 0 3 tcp 1540 ------- 0 0.0 3.0 71 142
r 0.140888 3 0 ack 40 ------- 0 3.0 0.0 52 123
+ 0.140888 0 3 tcp 1540 ------- 0 0.0 3.0 72 143
- 0.140888 0 3 tcp 1540 ------- 0 0.0 3.0 72 143
r 0.141011 3 0 ack 40 ------- 0 3.0 0.0 53 124
+ 0.141011 0 3 tcp 1540 ------- 0 0.0 3.0 73 144
- 0.141011 0 3 tcp 1540 ------- 0 0.0 3.0 73 144
r 0.141134 3 0 ack 40 ------- 0 3.0 0.0 54 125
+ 0.141134 0 3 tcp 1540 ------- 0 0.0 3.0 74 145
- 0.141134 0 3 tcp 1540 ------- 0 0.0 3.0 74 145
r 0.141258 3 0 ack 40 ------- 0 3.0 0.0 55 126
+ 0.141258 0 3 tcp 1540 ------- 0 0.0 3.0 75 146
- 0.141258 0 3 tcp 1540 ------- 0 0.0 3.0 75 146
r 0.141381 3 0 ack 40 ------- 0 3.0 0.0 56 127
+ 0.141381 0 3 tcp 1540 ------- 0 0.0 3.0 76 147
- 0.141381 0 3 tcp 1540 ------- 0 0.0 3.0 76 147
r 0.141504 3 0 ack 40 ------- 0 3.0 0.0 57 128
+ 0.141504 0 3 tcp 1540 ------- 0 0.0 3.0 77 148
- 0.141504 0 3 tcp 1540 ------- 0 0.0 3.0 77 148
r 0.141627 3 0 ack 40 ------- 0 3.0 0.0 58 129
+ 0.141627 0 3 tcp 1540 ------- 0 0.0 3.0 78 149
- 0.141627 0 3 tcp 1540 ------- 0 0.0 3.0 78 149
r 0.14175 3 0 ack 40 ------- 0 3.0 0.0 59 130
+ 0.14175 0 3 tcp 1540 ------- 0 0.0 3.0 79 150
- 0.14175 0 3 tcp 1540 ------- 0 0.0 3.0 79 150
r 0.141874 3 0 ack 40 ------- 0 3.0 0.0 60 131
+ 0.141874 0 3 tcp 1540 ------- 0 0.0 3.0 80 151
- 0.141874 0 3 tcp 1540 ------- 0 0.0 3.0 80 151
r 0.141997 3 0 ack 40 ------- 0 3.0 0.0 61 132
+ 0.141997 0 3 tcp 1540 ------- 0 0.0 3.0 81 152
- 0.141997 0 3 tcp 1540 ------- 0 0.0 3.0 81 152
r 0.14212 3 0 ack 40 ------- 0 3.0 0.0 62 133
+ 0.14212 0 3 tcp 1540 ------- 0 0.0 3.0 82 153
- 0.14212 0 3 tcp 1540 ------- 0 0.0 3.0 82 153
r 0.142243 3 0 ack 40 ------- 0 3.0 0.0 63 134
+ 0.142243 0 3 tcp 1540 ------- 0 0.0 3.0 83 154
- 0.142243 0 3 tcp 1540 ------- 0 0.0 3.0 83 154
r 0.142366 3 0 ack 40 ------- 0 3.0 0.0 64 135
+ 0.142366 0 3 tcp 1540 ------- 0 0.0 3.0 84 155
- 0.142366 0 3 tcp 1540 ------- 0 0.0 3.0 84 155
r 0.14249 3 0 ack 40 ------- 0 3.0 0.0 65 136
+ 0.14249 0 3 tcp 1540 ------- 0 0.0 3.0 85 156
- 0.14249 0 3 tcp 1540 ------- 0 0.0 3.0 85 156
r 0.142613 3 0 ack 40 ------- 0 3.0 0.0 66 137
+ 0.142613 0 3 tcp 1540 ------- 0 0.0 3.0 86 157
- 0.142613 0 3 tcp 1540 ------- 0 0.0 3.0 86 157
r 0.142736 3 0 ack 40 ------- 0 3.0 0.0 67 138
+ 0.142736 0 3 tcp 1540 ------- 0 0.0 3.0 87 158
- 0.142736 0 3 tcp 1540 ------- 0 0.0 3.0 87 158
r 0.142859 3 0 ack 40 ------- 0 3.0 0.0 68 139
+ 0.142859 0 3 tcp 1540 ------- 0 0.0 3.0 88 159
- 0.142859 0 3 tcp 1540 ------- 0 0.0 3.0 88 159
r 0.142982 3 0 ack 40 ------- 0 3.0 0.0 69 140
+ 0.142982 0 3 tcp 1540 ------- 0 0.0 3.0 89 160
- 0.142982 0 3 tcp 1540 ------- 0 0.0 3.0 89 160
r 0.143106 3 0 ack 40 ------- 0 3.0 0.0 70 141
+ 0.143106 0 3 tcp 1540 ------- 0 0.0 3.0 90 161
- 0.143106 0 3 tcp 1540 ------- 0 0.0 3.0 90 161
r 0.150888 0 3 tcp 1540 ------- 0 0.0 3.0 71 142
+ 0.150888 3 0 ack 40 ------- 0 3.0 0.0 71 162
- 0.150888 3 0 ack 40 ------- 0 3.0 0.0 71 162
r 0.151011 0 3 tcp 1540 ------- 0 0.0 3.0 72 143
+ 0.151011 3 0 ack 40 ------- 0 3.0 0.0 72 163
- 0.151011 3 0 ack 40 ------- 0 3.0 0.0 72 163
r 0.151134 0 3 tcp 1540 ------- 0 0.0 3.0 73 144
+ 0.151134 3 0 ack 40 ------- 0 3.0 0.0 73 164
- 0.151134 3 0 ack 40 ------- 0 3.0 0.0 73 164
r 0.151258 0 3 tcp 1540 ------- 0 0.0 3.0 74 145
+ 0.151258 3 0 ack 40 ------- 0 3.0 0.0 74 165
- 0.151258 3 0 ack 40 ------- 0 3.0 0.0 74 165
r 0.151381 0 3 tcp 1540 ------- 0 0.0 3.0 75 146
+ 0.151381 3 0 ack 40 ------- 0 3.0 0.0 75 166
- 0.151381 3 0 ack 40 ------- 0 3.0 0.0 75 166
r 0.151504 0 3 tcp 1540 ------- 0 0.0 3.0 76 147
+ 0.151504 3 0 ack 40 ------- 0 3.0 0.0 76 167
- 0.151504 3 0 ack 40 ------- 0 3.0 0.0 76 167
r 0.151627 0 3 tcp 1540 ------- 0 0.0 3.0 77 148
+ 0.151627 3 0 ack 40 ------- 0 3.0 0.0 77 168
- 0.151627 3 0 ack 40 ------- 0 3.0 0.0 77 168
r 0.15175 0 3 tcp 1540 ------- 0 0.0 3.0 78 149
+ 0.15175 3 0 ack 40 ------- 0 3.0 0.0 78 169
- 0.15175 3 0 ack 40 ------- 0 3.0 0.0 78 169
r 0.151874 0 3 tcp 1540 ------- 0 0.0 3.0 79 150
+ 0.151874 3 0 ack 40 ------- 0 3.0 0.0 79 170
- 0.151874 3 0 ack 40 ------- 0 3.0 0.0 79 170
r 0.151997 0 3 tcp 1540 ------- 0 0.0 3.0 80 151
+ 0.151997 3 0 ack 40 ------- 0 3.0 0.0 80 171
- 0.151997 3 0 ack 40 ------- 0 3.0 0.0 80 171
r 0.15212 0 3 tcp 1540 ------- 0 0.0 3.0 81 152
+ 0.15212 3 0 ack 40 ------- 0 3.0 0.0 81 172
- 0.15212 3 0 ack 40 ------- 0 3.0 0.0 81 172
r 0.152243 0 3 tcp 1540 ------- 0 0.0 3.0 82 153
+ 0.152243 3 0 ack 40 ------- 0 3.0 0.0 82 173
- 0.152243 3 0 ack 40 ------- 0 3.0 0.0 82 173
r 0.152366 0 3 tcp 1540 ------- 0 0.0 3.0 83 154
+ 0.152366 3 0 ack 40 ------- 0 3.0 0.0 83 174
- 0.152366 3 0 ack 40 ------- 0 3.0 0.0 83 174
r 0.15249 0 3 tcp 1540 ------- 0 0.0 3.0 84 155
+ 0.15249 3 0 ack 40 ------- 0 3.0 0.0 84 175
- 0.15249 3 0 ack 40 ------- 0 3.0 0.0 84 175
r 0.152613 0 3 tcp 1540 ------- 0 0.0 3.0 85 156
+ 0.152613 3 0 ack 40 ------- 0 3.0 0.0 85 176
- 0.152613 3 0 ack 40 ------- 0 3.0 0.0 85 176
r 0.152736 0 3 tcp 1540 ------- 0 0.0 3.0 86 157
+ 0.152736 3 0 ack 40 ------- 0 3.0 0.0 86 177
- 0.152736 3 0 ack 40 ------- 0 3.0 0.0 86 177
r 0.152859 0 3 tcp 1540 ------- 0 0.0 3.0 87 158
+ 0.152859 3 0 ack 40 ------- 0 3.0 0.0 87 178
- 0.152859 3 0 ack 40 ------- 0 3.0 0.0 87 178
r 0.152982 0 3 tcp 1540 ------- 0 0.0 3.0 88 159
+ 0.152982 3 0 ack 40 ------- 0 3.0 0.0 88 179
- 0.152982 3 0 ack 40 ------- 0 3.0 0.0 88 179
r 0.153106 0 3 tcp 1540 ------- 0 0.0 3.0 89 160
+ 0.153106 3 0 ack 40 ------- 0 3.0 0.0 89 180
- 0.153106 3 0 ack 40 ------- 0 3.0 0.0 89 180
r 0.153229 0 3 tcp 1540 ------- 0 0.0 3.0 90 161
+ 0.153229 3 0 ack 40 ------- 0 3.0 0.0 90 181
- 0.153229 3 0 ack 40 ------- 0 3.0 0.0 90 181
r 0.160891 3 0 ack 40 ------- 0 3.0 0.0 71 162
+ 0.160891 0 3 tcp 1540 ------- 0 0.0 3.0 91 182
- 0.160891 0 3 tcp 1540 ------- 0 0.0 3.0 91 182
r 0.161014 3 0 ack 40 ------- 0 3.0 0.0 72 163
+ 0.161014 0 3 tcp 1540 ------- 0 0.0 3.0 92 183
- 0.161014 0 3 tcp 1540 ------- 0 0.0 3.0 92 183
r 0.161138 3 0 ack 40 ------- 0 3.0 0.0 73 164
+ 0.161138 0 3 tcp 1540 ------- 0 0.0 3.0 93 184
- 0.161138 0 3 tcp 1540 ------- 0 0.0 3.0 93 184
r 0.161261 3 0 ack 40 ------- 0 3.0 0.0 74 165
+ 0.161261 0 3 tcp 1540 ------- 0 0.0 3.0 94 185
- 0.161261 0 3 tcp 1540 ------- 0 0.0 3.0 94 185
r 0.161384 3 0 ack 40 ------- 0 3.0 0.0 75 166
+ 0.161384 0 3 tcp 1540 ------- 0 0.0 3.0 95 186
- 0.161384 0 3 tcp 1540 ------- 0 0.0 3.0 95 186
r 0.161507 3 0 ack 40 ------- 0 3.0 0.0 76 167
+ 0.161507 0 3 tcp 1540 ------- 0 0.0 3.0 96 187
- 0.161507 0 3 tcp 1540 ------- 0 0.0 3.0 96 187
r 0.16163 3 0 ack 40 ------- 0 3.0 0.0 77 168
+ 0.16163 0 3 tcp 1540 ------- 0 0.0 3.0 97 188
- 0.16163 0 3 tcp 1540 ------- 0 0.0 3.0 97 188
r 0.161754 3 0 ack 40 ------- 0 3.0 0.0 78 169
+ 0.161754 0 3 tcp 1540 ------- 0 0.0 3.0 98 189
- 0.161754 0 3 tcp 1540 ------- 0 0.0 3.0 98 189
r 0.161877 3 0 ack 40 ------- 0 3.0 0.0 79 170
+ 0.161877 0 3 tcp 1540 ------- 0 0.0 3.0 99 190
- 0.161877 0 3 tcp 1540 ------- 0 0.0 3.0 99 190
r 0.162 3 0 ack 40 ------- 0 3.0 0.0 80 171
+ 0.162 0 3 tcp 1540 ------- 0 0.0 3.0 100 191
- 0.162 0 3 tcp 1540 ------- 0 0.0 3.0 100 191
r 0.162123 3 0 ack 40 ------- 0 3.0 0.0 81 172
+ 0.162123 0 3 tcp 1540 ------- 0 0.0 3.0 101 192
- 0.162123 0 3 tcp 1540 ------- 0 0.0 3.0 101 192
r 0.162246 3 0 ack 40 ------- 0 3.0 0.0 82 173
+ 0.162246 0 3 tcp 1540 ------- 0 0.0 3.0 102 193
- 0.162246 0 3 tcp 1540 ------- 0 0.0 3.0 102 193
r 0.16237 3 0 ack 40 ------- 0 3.0 0.0 83 174
+ 0.16237 0 3 tcp 1540 ------- 0 0.0 3.0 103 194
- 0.16237 0 3 tcp 1540 ------- 0 0.0 3.0 103 194
r 0.162493 3 0 ack 40 ------- 0 3.0 0.0 84 175
+ 0.162493 0 3 tcp 1540 ------- 0 0.0 3.0 104 195
- 0.162493 0 3 tcp 1540 ------- 0 0.0 3.0 104 195
r 0.162616 3 0 ack 40 ------- 0 3.0 0.0 85 176
+ 0.162616 0 3 tcp 1540 ------- 0 0.0 3.0 105 196
- 0.162616 0 3 tcp 1540 ------- 0 0.0 3.0 105 196
r 0.162739 3 0 ack 40 ------- 0 3.0 0.0 86 177
+ 0.162739 0 3 tcp 1540 ------- 0 0.0 3.0 106 197
- 0.162739 0 3 tcp 1540 ------- 0 0.0 3.0 106 197
r 0.162862 3 0 ack 40 ------- 0 3.0 0.0 87 178
+ 0.162862 0 3 tcp 1540 ------- 0 0.0 3.0 107 198
- 0.162862 0 3 tcp 1540 ------- 0 0.0 3.0 107 198
r 0.162986 3 0 ack 40 ------- 0 3.0 0.0 88 179
+ 0.162986 0 3 tcp 1540 ------- 0 0.0 3.0 108 199
- 0.162986 0 3 tcp 1540 ------- 0 0.0 3.0 108 199
r 0.163109 3 0 ack 40 ------- 0 3.0 0.0 89 180
+ 0.163109 0 3 tcp 1540 ------- 0 0.0 3.0 109 200
- 0.163109 0 3 tcp 1540 ------- 0 0.0 3.0 109 200
r 0.163232 3 0 ack 40 ------- 0 3.0 0.0 90 181
+ 0.163232 0 3 tcp 1540 ------- 0 0.0 3.0 110 201
- 0.163232 0 3 tcp 1540 ------- 0 0.0 3.0 110 201
r 0.171014 0 3 tcp 1540 ------- 0 0.0 3.0 91 182
+ 0.171014 3 0 ack 40 ------- 0 3.0 0.0 91 202
- 0.171014 3 0 ack 40 ------- 0 3.0 0.0 91 202
r 0.171138 0 3 tcp 1540 ------- 0 0.0 3.0 92 183
+ 0.171138 3 0 ack 40 ------- 0 3.0 0.0 92 203
- 0.171138 3 0 ack 40 ------- 0 3.0 0.0 92 203
r 0.171261 0 3 tcp 1540 ------- 0 0.0 3.0 93 184
+ 0.171261 3 0 ack 40 ------- 0 3.0 0.0 93 204
- 0.171261 3 0 ack 40 ------- 0 3.0 0.0 93 204
r 0.171384 0 3 tcp 1540 ------- 0 0.0 3.0 94 185
+ 0.171384 3 0 ack 40 ------- 0 3.0 0.0 94 205
- 0.171384 3 0 ack 40 ------- 0 3.0 0.0 94 205
r 0.171507 0 3 tcp 1540 ------- 0 0.0 3.0 95 186
+ 0.171507 3 0 ack 40 ------- 0 3.0 0.0 95 206
- 0.171507 3 0 ack 40 ------- 0 3.0 0.0 95 206
r 0.17163 0 3 tcp 1540 ------- 0 0.0 3.0 96 187
+ 0.17163 3 0 ack 40 ------- 0 3.0 0.0 96 207
- 0.17163 3 0 ack 40 ------- 0 3.0 0.0 96 207
r 0.171754 0 3 tcp 1540 ------- 0 0.0 3.0 97 188
+ 0.171754 3 0 ack 40 ------- 0 3.0 0.0 97 208
- 0.171754 3 0 ack 40 ------- 0 3.0 0.0 97 208
r 0.171877 0 3 tcp 1540 ------- 0 0.0 3.0 98 189
+ 0.171877 3 0 ack 40 ------- 0 3.0 0.0 98 209
- 0.171877 3 0 ack 40 ------- 0 3.0 0.0 98 209
r 0.172 0 3 tcp 1540 ------- 0 0.0 3.0 99 190
+ 0.172 3 0 ack 40 ------- 0 3.0 0.0 99 210
- 0.172 3 0 ack 40 ------- 0 3.0 0.0 99 210
r 0.172123 0 3 tcp 1540 ------- 0 0.0 3.0 100 191
+ 0.172123 3 0 ack 40 ------- 0 3.0 0.0 100 211
- 0.172123 3 0 ack 40 ------- 0 3.0 0.0 100 211
r 0.172246 0 3 tcp 1540 ------- 0 0.0 3.0 101 192
+ 0.172246 3 0 ack 40 ------- 0 3.0 0.0 101 212
- 0.172246 3 0 ack 40 ------- 0 3.0 0.0 101 212
r 0.17237 0 3 tcp 1540 ------- 0 0.0 3.0 102 193
+ 0.17237 3 0 ack 40 ------- 0 3.0 0.0 102 213
- 0.17237 3 0 ack 40 ------- 0 3.0 0.0 102 213
r 0.172493 0 3 tcp 1540 ------- 0 0.0 3.0 103 194
+ 0.172493 3 0 ack 40 ------- 0 3.0 0.0 103 214
- 0.172493 3 0 ack 40 ------- 0 3.0 0.0 103 214
r 0.172616 0 3 tcp 1540 ------- 0 0.0 3.0 104 195
+ 0.172616 3 0 ack 40 ------- 0 3.0 0.0 104 215
- 0.172616 3 0 ack 40 ------- 0 3.0 0.0 104 215
r 0.172739 0 3 tcp 1540 ------- 0 0.0 3.0 105 196
+ 0.172739 3 0 ack 40 ------- 0 3.0 0.0 105 216
- 0.172739 3 0 ack 40 ------- 0 3.0 0.0 105 216
r 0.172862 0 3 tcp 1540 ------- 0 0.0 3.0 106 197
+ 0.172862 3 0 ack 40 ------- 0 3.0 0.0 106 217
- 0.172862 3 0 ack 40 ------- 0 3.0 0.0 106 217