n -t * -s 0  -x 265 -y 396 -Z 0 -z 20  -v circle -c black
n -t * -s 1  -x 334 -y 393 -Z 0 -z 20  -v circle -c black
V -t * -v 1.0a5 -a 0
W -t * -x 434 -y 496
A -t * -n 1 -p 0 -o 0x7fffffff -c 30 -a 1
A -t * -h 1 -m 1073741823 -s 0
+ -t 0.000000000 -s 0 -d -1 -p cbr -e 1000 -c 2 -a 0 -i 0 -k AGT 
- -t 0.000000000 -s 0 -d -1 -p cbr -e 1000 -c 2 -a 0 -i 0 -k AGT
h -t 0.000000000 -s 0 -d -1 -p cbr -e 1000 -c 2 -a 0 -i 0 -k AGT
+ -t 0.000821201 -s 0 -d -1 -p message -e 32 -c 2 -a 0 -i 1 -k RTR 
- -t 0.000821201 -s 0 -d -1 -p message -e 32 -c 2 -a 0 -i 1 -k RTR
h -t 0.000821201 -s 0 -d -1 -p message -e 32 -c 2 -a 0 -i 1 -k RTR
+ -t 0.001216201 -s 0 -d -1 -p message -e 90 -c 2 -a 0 -i 1 -k MAC 
- -t 0.001216201 -s 0 -d -1 -p message -e 90 -c 2 -a 0 -i 1 -k MAC
h -t 0.001216201 -s 0 -d -1 -p message -e 90 -c 2 -a 0 -i 1 -k MAC
r -t 0.001936431 -s 1 -d -1 -p message -e 32 -c 2 -a 0 -i 1 -k MAC
r -t 0.001961431 -s 1 -d -1 -p message -e 32 -c 2 -a 0 -i 1 -k RTR
+ -t 0.008000000 -s 0 -d -1 -p cbr -e 1000 -c 2 -a 0 -i 2 -k AGT 
- -t 0.008000000 -s 0 -d -1 -p cbr -e 1000 -c 2 -a 0 -i 2 -k AGT
h -t 0.008000000 -s 0 -d -1 -p cbr -e 1000 -c 2 -a 0 -i 2 -k AGT
+ -t 0.016000000 -s 0 -d -1 -p cbr -e 1000 -c 2 -a 0 -i 3 -k AGT 
- -t 0.016000000 -s 0 -d -1 -p cbr -e 1000 -c 2 -a 0 -i 3 -k AGT
h -t 0.016000000 -s 0 -d -1 -p cbr -e 1000 -c 2 -a 0 -i 3 -k AGT
+ -t 0.024000000 -s 0 -d -1 -p cbr -e 1000 -c 2 -a 0 -i 4 -k AGT 
- -t 0.024000000 -s 0 -d -1 -p cbr -e 1000 -c 2 -a 0 -i 4 -k AGT
h -t 0.024000000 -s 0 -d -1 -p cbr -e 1000 -c 2 -a 0 -i 4 -k AGT
+ -t 0.032000000 -s 0 -d -1 -p cbr -e 1000 -c 2 -a 0 -i 5 -k AGT 
- -t 0.032000000 -s 0 -d -1 -p cbr -e 1000 -c 2 -a 0 -i 5 -k AGT
h -t 0.032000000 -s 0 -d -1 -p cbr -e 1000 -c 2 -a 0 -i 5 -k AGT
+ -t 0.040000000 -s 0 -d -1 -p cbr -e 1000 -c 2 -a 0 -i 6 -k AGT 
- -t 0.040000000 -s 0 -d -1 -p cbr -e 1000 -c 2 -a 0 -i 6 -k AGT
h -t 0.040000000 -s 0 -d -1 -p cbr -e 1000 -c 2 -a 0 -i 6 -k AGT
d -t 0.040000000 -s 0 -d -1 -p cbr -e 1020 -c 2 -a 0 -i 0 -k RTR
+ -t 0.048000000 -s 0 -d -1 -p cbr -e 1000 -c 2 -a 0 -i 7 -k AGT 
- -t 0.048000000 -s 0 -d -1 -p cbr -e 1000 -c 2 -a 0 -i 7 -k AGT
h -t 0.048000000 -s 0 -d -1 -p cbr -e 1000 -c 2 -a 0 -i 7 -k AGT
d -t 0.048000000 -s 0 -d -1 -p cbr -e 1020 -c 2 -a 0 -i 2 -k RTR
+ -t 0.056000000 -s 0 -d -1 -p cbr -e 1000 -c 2 -a 0 -i 8 -k AGT 
- -t 0.056000000 -s 0 -d -1 -p cbr -e 1000 -c 2 -a 0 -i 8 -k AGT
h -t 0.056000000 -s 0 -d -1 -p cbr -e 1000 -c 2 -a 0 -i 8 -k AGT
d -t 0.056000000 -s 0 -d -1 -p cbr -e 1020 -c 2 -a 0 -i 3 -k RTR
+ -t 0.064000000 -s 0 -d -1 -p cbr -e 1000 -c 2 -a 0 -i 9 -k AGT 
- -t 0.064000000 -s 0 -d -1 -p cbr -e 1000 -c 2 -a 0 -i 9 -k AGT
h -t 0.064000000 -s 0 -d -1 -p cbr -e 1000 -c 2 -a 0 -i 9 -k AGT
d -t 0.064000000 -s 0 -d -1 -p cbr -e 1020 -c 2 -a 0 -i 4 -k RTR
+ -t 0.072000000 -s 0 -d -1 -p cbr -e 1000 -c 2 -a 0 -i 10 -k AGT 
- -t 0.072000000 -s 0 -d -1 -p cbr -e 1000 -c 2 -a 0 -i 10 -k AGT
h -t 0.072000000 -s 0 -d -1 -p cbr -e 1000 -c 2 -a 0 -i 10 -k AGT
d -t 0.072000000 -s 0 -d -1 -p cbr -e 1020 -c 2 -a 0 -i 5 -k RTR
+ -t 0.080000000 -s 0 -d -1 -p cbr -e 1000 -c 2 -a 0 -i 11 -k AGT 
- -t 0.080000000 -s 0 -d -1 -p cbr -e 1000 -c 2 -a 0 -i 11 -k AGT
h -t 0.080000000 -s 0 -d -1 -p cbr -e 1000 -c 2 -a 0 -i 11 -k AGT
d -t 0.080000000 -s 0 -d -1 -p cbr -e 1020 -c 2 -a 0 -i 6 -k RTR
+ -t 0.088000000 -s 0 -d -1 -p cbr -e 1000 -c 2 -a 0 -i 12 -k AGT 
- -t 0.088000000 -s 0 -d -1 -p cbr -e 1000 -c 2 -a 0 -i 12 -k AGT
h -t 0.088000000 -s 0 -d -1 -p cbr -e 1000 -c 2 -a 0 -i 12 -k AGT
d -t 0.088000000 -s 0 -d -1 -p cbr -e 1020 -c 2 -a 0 -i 7 -k RTR
+ -t 0.096000000 -s 0 -d -1 -p cbr -e 1000 -c 2 -a 0 -i 13 -k AGT 
- -t 0.096000000 -s 0 -d -1 -p cbr -e 1000 -c 2 -a 0 -i 13 -k AGT
h -t 0.096000000 -s 0 -d -1 -p cbr -e 1000 -c 2 -a 0 -i 13 -k AGT
d -t 0.096000000 -s 0 -d -1 -p cbr -e 1020 -c 2 -a 0 -i 8 -k RTR
+ -t 0.104000000 -s 0 -d -1 -p cbr -e 1000 -c 2 -a 0 -i 14 -k AGT 
- -t 0.104000000 -s 0 -d -1 -p cbr -e 1000 -c 2 -a 0 -i 14 -k AGT
h -t 0.104000000 -s 0 -d -1 -p cbr -e 1000 -c 2 -a 0 -i 14 -k AGT
d -t 0.104000000 -s 0 -d -1 -p cbr -e 1020 -c 2 -a 0 -i 9 -k RTR
+ -t 0.112000000 -s 0 -d -1 -p cbr -e 1000 -c 2 -a 0 -i 15 -k AGT 
- -t 0.112000000 -s 0 -d -1 -p cbr -e 1000 -c 2 -a 0 -i 15 -k AGT
h -t 0.112000000 -s 0 -d -1 -p cbr -e 1000 -c 2 -a 0 -i 15 -k AGT
d -t 0.112000000 -s 0 -d -1 -p cbr -e 1020 -c 2 -a 0 -i 10 -k RTR
+ -t 0.120000000 -s 0 -d -1 -p cbr -e 1000 -c 2 -a 0 -i 16 -k AGT 
- -t 0.120000000 -s 0 -d -1 -p cbr -e 1000 -c 2 -a 0 -i 16 -k AGT
h -t 0.120000000 -s 0 -d -1 -p cbr -e 1000 -c 2 -a 0 -i 16 -k AGT
d -t 0.120000000 -s 0 -d -1 -p cbr -e 1020 -c 2 -a 0 -i 11 -k RTR
+ -t 0.128000000 -s 0 -d -1 -p cbr -e 1000 -c 2 -a 0 -i 17 -k AGT 
- -t 0.128000000 -s 0 -d -1 -p cbr -e 1000 -c 2 -a 0 -i 17 -k AGT
h -t 0.128000000 -s 0 -d -1 -p cbr -e 1000 -c 2 -a 0 -i 17 -k AGT
d -t 0.128000000 -s 0 -d -1 -p cbr -e 1020 -c 2 -a 0 -i 12 -k RTR
+ -t 0.136000000 -s 0 -d -1 -p cbr -e 1000 -c 2 -a 0 -i 18 -k AGT 
- -t 0.136000000 -s 0 -d -1 -p cbr -e 1000 -c 2 -a 0 -i 18 -k AGT
h -t 0.136000000 -s 0 -d -1 -p cbr -e 1000 -c 2 -a 0 -i 18 -k AGT
d -t 0.136000000 -s 0 -d -1 -p cbr -e 1020 -c 2 -a 0 -i 13 -k RTR
+ -t 0.144000000 -s 0 -d -1 -p cbr -e 1000 -c 2 -a 0 -i 19 -k AGT 
- -t 0.144000000 -s 0 -d -1 -p cbr -e 1000 -c 2 -a 0 -i 19 -k AGT
h -t 0.144000000 -s 0 -d -1 -p cbr -e 1000 -c 2 -a 0 -i 19 -k AGT
d -t 0.144000000 -s 0 -d -1 -p cbr -e 1020 -c 2 -a 0 -i 14 -k RTR
+ -t 0.152000000 -s 0 -d -1 -p cbr -e 1000 -c 2 -a 0 -i 20 -k AGT 
- -t 0.152000000 -s 0 -d -1 -p cbr -e 1000 -c 2 -a 0 -i 20 -k AGT
h -t 0.152000000 -s 0 -d -1 -p cbr -e 1000 -c 2 -a 0 -i 20 -k AGT
d -t 0.152000000 -s 0 -d -1 -p cbr -e 1020 -c 2 -a 0 -i 15 -k RTR
+ -t 0.160000000 -s 0 -d -1 -p cbr -e 1000 -c 2 -a 0 -i 21 -k AGT 
- -t 0.160000000 -s 0 -d -1 -p cbr -e 1000 -c 2 -a 0 -i 21 -k AGT
h -t 0.160000000 -s 0 -d -1 -p cbr -e 1000 -c 2 -a 0 -i 21 -k AGT
d -t 0.160000000 -s 0 -d -1 -p cbr -e 1020 -c 2 -a 0 -i 16 -k RTR
+ -t 0.168000000 -s 0 -d -1 -p cbr -e 1000 -c 2 -a 0 -i 22 -k AGT 
- -t 0.168000000 -s 0 -d -1 -p cbr -e 1000 -c 2 -a 0 -i 22 -k AGT
h -t 0.168000000 -s 0 -d -1 -p cbr -e 1000 -c 2 -a 0 -i 22 -k AGT
d -t 0.168000000 -s 0 -d -1 -p cbr -e 1020 -c 2 -a 0 -i 17 -k RTR
+ -t 0.176000000 -s 0 -d -1 -p cbr -e 1000 -c 2 -a 0 -i 23 -k AGT 
- -t 0.176000000 -s 0 -d -1 -p cbr -e 1000 -c 2 -a 0 -i 23 -k AGT
h -t 0.176000000 -s 0 -d -1 -p cbr -e 1000 -c 2 -a 0 -i 23 -k AGT
d -t 0.176000000 -s 0 -d -1 -p cbr -e 1020 -c 2 -a 0 -i 18 -k RTR
+ -t 0.184000000 -s 0 -d -1 -p cbr -e 1000 -c 2 -a 0 -i 24 -k AGT 
- -t 0.184000000 -s 0 -d -1 -p cbr -e 1000 -c 2 -a 0 -i 24 -k AGT
h -t 0.184000000 -s 0 -d -1 -p cbr -e 1000 -c 2 -a 0 -i 24 -k AGT
d -t 0.184000000 -s 0 -d -1 -p cbr -e 1020 -c 2 -a 0 -i 19 -k RTR
+ -t 0.192000000 -s 0 -d -1 -p cbr -e 1000 -c 2 -a 0 -i 25 -k AGT 
- -t 0.192000000 -s 0 -d -1 -p cbr -e 1000 -c 2 -a 0 -i 25 -k AGT
h -t 0.192000000 -s 0 -d -1 -p cbr -e 1000 -c 2 -a 0 -i 25 -k AGT
d -t 0.192000000 -s 0 -d -1 -p cbr -e 1020 -c 2 -a 0 -i 20 -k RTR
+ -t 0.200000000 -s 0 -d -1 -p cbr -e 1000 -c 2 -a 0 -i 26 -k AGT 
- -t 0.200000000 -s 0 -d -1 -p cbr -e 1000 -c 2 -a 0 -i 26 -k AGT
h -t 0.200000000 -s 0 -d -1 -p cbr -e 1000 -c 2 -a 0 -i 26 -k AGT
d -t 0.200000000 -s 0 -d -1 -p cbr -e 1020 -c 2 -a 0 -i 21 -k RTR
+ -t 0.208000000 -s 0 -d -1 -p cbr -e 1000 -c 2 -a 0 -i 27 -k AGT 
- -t 0.208000000 -s 0 -d -1 -p cbr -e 1000 -c 2 -a 0 -i 27 -k AGT
h -t 0.208000000 -s 0 -d -1 -p cbr -e 1000 -c 2 -a 0 -i 27 -k AGT
d -t 0.208000000 -s 0 -d -1 -p cbr -e 1020 -c 2 -a 0 -i 22 -k RTR
+ -t 0.216000000 -s 0 -d -1 -p cbr -e 1000 -c 2 -a 0 -i 28 -k AGT 
- -t 0.216000000 -s 0 -d -1 -p cbr -e 1000 -c 2 -a 0 -i 28 -k AGT
h -t 0.216000000 -s 0 -d -1 -p cbr -e 1000 -c 2 -a 0 -i 28 -k AGT
d -t 0.216000000 -s 0 -d -1 -p cbr -e 1020 -c 2 -a 0 -i 23 -k RTR
+ -t 0.224000000 -s 0 -d -1 -p cbr -e 1000 -c 2 -a 0 -i 29 -k AGT 
- -t 0.224000000 -s 0 -d -1 -p cbr -e 1000 -c 2 -a 0 -i 29 -k AGT
h -t 0.224000000 -s 0 -d -1 -p cbr -e 1000 -c 2 -a 0 -i 29 -k AGT
d -t 0.224000000 -s 0 -d -1 -p cbr -e 1020 -c 2 -a 0 -i 24 -k RTR
+ -t 0.232000000 -s 0 -d -1 -p cbr -e 1000 -c 2 -a 0 -i 30 -k AGT 
- -t 0.232000000 -s 0 -d -1 -p cbr -e 1000 -c 2 -a 0 -i 30 -k AGT
h -t 0.232000000 -s 0 -d -1 -p cbr -e 1000 -c 2 -a 0 -i 30 -k AGT
d -t 0.232000000 -s 0 -d -1 -p cbr -e 1020 -c 2 -a 0 -i 25 -k RTR
+ -t 0.240000000 -s 0 -d -1 -p cbr -e 1000 -c 2 -a 0 -i 31 -k AGT 
- -t 0.240000000 -s 0 -d -1 -p cbr -e 1000 -c 2 -a 0 -i 31 -k AGT
h -t 0.240000000 -s 0 -d -1 -p cbr -e 1000 -c 2 -a 0 -i 31 -k AGT
d -t 0.240000000 -s 0 -d -1 -p cbr -e 1020 -c 2 -a 0 -i 26 -k RTR
+ -t 0.248000000 -s 0 -d -1 -p cbr -e 1000 -c 2 -a 0 -i 32 -k AGT 
- -t 0.248000000 -s 0 -d -1 -p cbr -e 1000 -c 2 -a 0 -i 32 -k AGT
h -t 0.248000000 -s 0 -d -1 -p cbr -e 1000 -c 2 -a 0 -i 32 -k AGT
d -t 0.248000000 -s 0 -d -1 -p cbr -e 1020 -c 2 -a 0 -i 27 -k RTR
+ -t 0.256000000 -s 0 -d -1 -p cbr -e 1000 -c 2 -a 0 -i 33 -k AGT 
- -t 0.256000000 -s 0 -d -1 -p cbr -e 1000 -c 2 -a 0 -i 33 -k AGT
h -t 0.256000000 -s 0 -d -1 -p cbr -e 1000 -c 2 -a 0 -i 33 -k AGT
d -t 0.256000000 -s 0 -d -1 -p cbr -e 1020 -c 2 -a 0 -i 28 -k RTR
+ -t 0.264000000 -s 0 -d -1 -p cbr -e 1000 -c 2 -a 0 -i 34 -k AGT 
- -t 0.264000000 -s 0 -d -1 -p cbr -e 1000 -c 2 -a 0 -i 34 -k AGT
h -t 0.264000000 -s 0 -d -1 -p cbr -e 1000 -c 2 -a 0 -i 34 -k AGT
d -t 0.264000000 -s 0 -d -1 -p cbr -e 1020 -c 2 -a 0 -i 29 -k RTR
+ -t 0.272000000 -s 0 -d -1 -p cbr -e 1000 -c 2 -a 0 -i 35 -k AGT 
- -t 0.272000000 -s 0 -d -1 -p cbr -e 1000 -c 2 -a 0 -i 35 -k AGT
h -t 0.272000000 -s 0 -d -1 -p cbr -e 1000 -c 2 -a 0 -i 35 -k AGT
d -t 0.272000000 -s 0 -d -1 -p cbr -e 1020 -c 2 -a 0 -i 30 -k RTR
+ -t 0.280000000 -s 0 -d -1 -p cbr -e 1000 -c 2 -a 0 -i 36 -k AGT 
- -t 0.280000000 -s 0 -d -1 -p cbr -e 1000 -c 2 -a 0 -i 36 -k AGT
h -t 0.280000000 -s 0 -d -1 -p cbr -e 1000 -c 2 -a 0 -i 36 -k AGT
d -t 0.280000000 -s 0 -d -1 -p cbr -e 1020 -c 2 -a 0 -i 31 -k RTR
+ -t 0.288000000 -s 0 -d -1 -p cbr -e 1000 -c 2 -a 0 -i 37 -k AGT 
- -t 0.288000000 -s 0 -d -1 -p cbr -e 1000 -c 2 -a 0 -i 37 -k AGT
h -t 0.288000000 -s 0 -d -1 -p cbr -e 1000 -c 2 -a 0 -i 37 -k AGT
d -t 0.288000000 -s 0 -d -1 -p cbr -e 1020 -c 2 -a 0 -i 32 -k RTR
+ -t 0.296000000 -s 0 -d -1 -p cbr -e 1000 -c 2 -a 0 -i 38 -k AGT 
- -t 0.296000000 -s 0 -d -1 -p cbr -e 1000 -c 2 -a 0 -i 38 -k AGT
h -t 0.296000000 -s 0 -d -1 -p cbr -e 1000 -c 2 -a 0 -i 38 -k AGT
d -t 0.296000000 -s 0 -d -1 -p cbr -e 1020 -c 2 -a 0 -i 33 -k RTR
+ -t 0.304000000 -s 0 -d -1 -p cbr -e 1000 -c 2 -a 0 -i 39 -k AGT 
- -t 0.304000000 -s 0 -d -1 -p cbr -e 1000 -c 2 -a 0 -i 39 -k AGT
h -t 0.304000000 -s 0 -d -1 -p cbr -e 1000 -c 2 -a 0 -i 39 -k AGT
d -t 0.304000000 -s 0 -d -1 -p cbr -e 1020 -c 2 -a 0 -i 34 -k RTR
+ -t 0.312000000 -s 0 -d -1 -p cbr -e 1000 -c 2 -a 0 -i 40 -k AGT 
- -t 0.312000000 -s 0 -d -1 -p cbr -e 1000 -c 2 -a 0 -i 40 -k AGT
h -t 0.312000000 -s 0 -d -1 -p cbr -e 1000 -c 2 -a 0 -i 40 -k AGT
d -t 0.312000000 -s 0 -d -1 -p cbr -e 1020 -c 2 -a 0 -i 35 -k RTR
+ -t 0.320000000 -s 0 -d -1 -p cbr -e 1000 -c 2 -a 0 -i 41 -k AGT 
- -t 0.320000000 -s 0 -d -1 -p cbr -e 1000 -c 2 -a 0 -i 41 -k AGT
h -t 0.320000000 -s 0 -d -1 -p cbr -e 1000 -c 2 -a 0 -i 41 -k AGT
d -t 0.320000000 -s 0 -d -1 -p cbr -e 1020 -c 2 -a 0 -i 36 -k RTR
+ -t 0.328000000 -s 0 -d -1 -p cbr -e 1000 -c 2 -a 0 -i 42 -k AGT 
- -t 0.328000000 -s 0 -d -1 -p cbr -e 1000 -c 2 -a 0 -i 42 -k AGT
h -t 0.328000000 -s 0 -d -1 -p cbr -e 1000 -c 2 -a 0 -i 42 -k AGT
d -t 0.328000000 -s 0 -d -1 -p cbr -e 1020 -c 2 -a 0 -i 37 -k RTR
+ -t 0.336000000 -s 0 -d -1 -p cbr -e 1000 -c 2 -a 0 -i 43 -k AGT 
- -t 0.336000000 -s 0 -d -1 -p cbr -e 1000 -c 2 -a 0 -i 43 -k AGT
h -t 0.336000000 -s 0 -d -1 -p cbr -e 1000 -c 2 -a 0 -i 43 -k AGT
d -t 0.336000000 -s 0 -d -1 -p cbr -e 1020 -c 2 -a 0 -i 38 -k RTR
+ -t 0.344000000 -s 0 -d -1 -p cbr -e 1000 -c 2 -a 0 -i 44 -k AGT 
- -t 0.344000000 -s 0 -d -1 -p cbr -e 1000 -c 2 -a 0 -i 44 -k AGT
h -t 0.344000000 -s 0 -d -1 -p cbr -e 1000 -c 2 -a 0 -i 44 -k AGT
d -t 0.344000000 -s 0 -d -1 -p cbr -e 1020 -c 2 -a 0 -i 39 -k RTR
+ -t 0.352000000 -s 0 -d -1 -p cbr -e 1000 -c 2 -a 0 -i 45 -k AGT 
- -t 0.352000000 -s 0 -d -1 -p cbr -e 1000 -c 2 -a 0 -i 45 -k AGT
h -t 0.352000000 -s 0 -d -1 -p cbr -e 1000 -c 2 -a 0 -i 45 -k AGT
d -t 0.352000000 -s 0 -d -1 -p cbr -e 1020 -c 2 -a 0 -i 40 -k RTR
+ -t 0.360000000 -s 0 -d -1 -p cbr -e 1000 -c 2 -a 0 -i 46 -k AGT 
- -t 0.360000000 -s 0 -d -1 -p cbr -e 1000 -c 2 -a 0 -i 46 -k AGT
h -t 0.360000000 -s 0 -d -1 -p cbr -e 1000 -c 2 -a 0 -i 46 -k AGT
d -t 0.360000000 -s 0 -d -1 -p cbr -e 1020 -c 2 -a 0 -i 41 -k RTR
+ -t 0.368000000 -s 0 -d -1 -p cbr -e 1000 -c 2 -a 0 -i 47 -k AGT 
- -t 0.368000000 -s 0 -d -1 -p cbr -e 1000 -c 2 -a 0 -i 47 -k AGT
h -t 0.368000000 -s 0 -d -1 -p cbr -e 1000 -c 2 -a 0 -i 47 -k AGT
d -t 0.368000000 -s 0 -d -1 -p cbr -e 1020 -c 2 -a 0 -i 42 -k RTR
+ -t 0.376000000 -s 0 -d -1 -p cbr -e 1000 -c 2 -a 0 -i 48 -k AGT 
- -t 0.376000000 -s 0 -d -1 -p cbr -e 1000 -c 2 -a 0 -i 48 -k AGT
h -t 0.376000000 -s 0 -d -1 -p cbr -e 1000 -c 2 -a 0 -i 48 -k AGT
d -t 0.376000000 -s 0 -d -1 -p cbr -e 1020 -c 2 -a 0 -i 43 -k RTR
+ -t 0.384000000 -s 0 -d -1 -p cbr -e 1000 -c 2 -a 0 -i 49 -k AGT 
- -t 0.384000000 -s 0 -d -1 -p cbr -e 1000 -c 2 -a 0 -i 49 -k AGT
h -t 0.384000000 -s 0 -d -1 -p cbr -e 1000 -c 2 -a 0 -i 49 -k AGT
d -t 0.384000000 -s 0 -d -1 -p cbr -e 1020 -c 2 -a 0 -i 44 -k RTR
+ -t 0.392000000 -s 0 -d -1 -p cbr -e 1000 -c 2 -a 0 -i 50 -k AGT 
- -t 0.392000000 -s 0 -d -1 -p cbr -e 1000 -c 2 -a 0 -i 50 -k AGT
h -t 0.392000000 -s 0 -d -1 -p cbr -e 1000 -c 2 -a 0 -i 50 -k AGT
d -t 0.392000000 -s 0 -d -1 -p cbr -e 1020 -c 2 -a 0 -i 45 -k RTR
+ -t 0.400000000 -s 0 -d -1 -p cbr -e 1000 -c 2 -a 0 -i 51 -k AGT 
- -t 0.400000000 -s 0 -d -1 -p cbr -e 1000 -c 2 -a 0 -i 51 -k AGT
h -t 0.400000000 -s 0 -d -1 -p cbr -e 1000 -c 2 -a 0 -i 51 -k AGT
d -t 0.400000000 -s 0 -d -1 -p cbr -e 1020 -c 2 -a 0 -i 46 -k RTR
+ -t 0.408000000 -s 0 -d -1 -p cbr -e 1000 -c 2 -a 0 -i 52 -k AGT 
- -t 0.408000000 -s 0 -d -1 -p cbr -e 1000 -c 2 -a 0 -i 52 -k AGT
h -t 0.408000000 -s 0 -d -1 -p cbr -e 1000 -c 2 -a 0 -i 52 -k AGT
d -t 0.408000000 -s 0 -d -1 -p cbr -e 1020 -c 2 -a 0 -i 47 -k RTR
+ -t 0.416000000 -s 0 -d -1 -p cbr -e 1000 -c 2 -a 0 -i 53 -k AGT 
- -t 0.416000000 -s 0 -d -1 -p cbr -e 1000 -c 2 -a 0 -i 53 -k AGT
h -t 0.416000000 -s 0 -d -1 -p cbr -e 1000 -c 2 -a 0 -i 53 -k AGT
d -t 0.416000000 -s 0 -d -1 -p cbr -e 1020 -c 2 -a 0 -i 48 -k RTR
+ -t 0.424000000 -s 0 -d -1 -p cbr -e 1000 -c 2 -a 0 -i 54 -k AGT 
- -t 0.424000000 -s 0 -d -1 -p cbr -e 1000 -c 2 -a 0 -i 54 -k AGT
h -t 0.424000000 -s 0 -d -1 -p cbr -e 1000 -c 2 -a 0 -i 54 -k AGT
d -t 0.424000000 -s 0 -d -1 -p cbr -e 1020 -c 2 -a 0 -i 49 -k RTR
+ -t 0.432000000 -s 0 -d -1 -p cbr -e 1000 -c 2 -a 0 -i 55 -k AGT 
- -t 0.432000000 -s 0 -d -1 -p cbr -e 1000 -c 2 -a 0 -i 55 -k AGT
h -t 0.432000000 -s 0 -d -1 -p cbr -e 1000 -c 2 -a 0 -i 55 -k AGT
d -t 0.432000000 -s 0 -d -1 -p cbr -e 1020 -c 2 -a 0 -i 50 -k RTR
+ -t 0.440000000 -s 0 -d -1 -p cbr -e 1000 -c 2 -a 0 -i 56 -k AGT 
- -t 0.440000000 -s 0 -d -1 -p cbr -e 1000 -c 2 -a 0 -i 56 -k AGT
h -t 0.440000000 -s 0 -d -1 -p cbr -e 1000 -c 2 -a 0 -i 56 -k AGT
d -t 0.440000000 -s 0 -d -1 -p cbr -e 1020 -c 2 -a 0 -i 51 -k RTR
+ -t 0.448000000 -s 0 -d -1 -p cbr -e 1000 -c 2 -a 0 -i 57 -k AGT 
- -t 0.448000000 -s 0 -d -1 -p cbr -e 1000 -c 2 -a 0 -i 57 -k AGT
h -t 0.448000000 -s 0 -d -1 -p cbr -e 1000 -c 2 -a 0 -i 57 -k AGT
d -t 0.448000000 -s 0 -d -1 -p cbr -e 1020 -c 2 -a 0 -i 52 -k RTR
+ -t 0.456000000 -s 0 -d -1 -p cbr -e 1000 -c 2 -a 0 -i 58 -k AGT 
- -t 0.456000000 -s 0 -d -1 -p cbr -e 1000 -c 2 -a 0 -i 58 -k AGT
h -t 0.456000000 -s 0 -d -1 -p cbr -e 1000 -c 2 -a 0 -i 58 -k AGT
d -t 0.456000000 -s 0 -d -1 -p cbr -e 1020 -c 2 -a 0 -i 53 -k RTR
+ -t 0.464000000 -s 0 -d -1 -p cbr -e 1000 -c 2 -a 0 -i 59 -k AGT 
- -t 0.464000000 -s 0 -d -1 -p cbr -e 1000 -c 2 -a 0 -i 59 -k AGT
h -t 0.464000000 -s 0 -d -1 -p cbr -e 1000 -c 2 -a 0 -i 59 -k AGT
d -t 0.464000000 -s 0 -d -1 -p cbr -e 1020 -c 2 -a 0 -i 54 -k RTR
+ -t 0.472000000 -s 0 -d -1 -p cbr -e 1000 -c 2 -a 0 -i 60 -k AGT 
- -t 0.472000000 -s 0 -d -1 -p cbr -e 1000 -c 2 -a 0 -i 60 -k AGT
h -t 0.472000000 -s 0 -d -1 -p cbr -e 1000 -c 2 -a 0 -i 60 -k AGT
d -t 0.472000000 -s 0 -d -1 -p cbr -e 1020 -c 2 -a 0 -i 55 -k RTR
+ -t 0.480000000 -s 0 -d -1 -p cbr -e 1000 -c 2 -a 0 -i 61 -k AGT 
- -t 0.480000000 -s 0 -d -1 -p cbr -e 1000 -c 2 -a 0 -i 61 -k AGT
h -t 0.480000000 -s 0 -d -1 -p cbr -e 1000 -c 2 -a 0 -i 61 -k AGT
d -t 0.480000000 -s 0 -d -1 -p cbr -e 1020 -c 2 -a 0 -i 56 -k RTR
+ -t 0.488000000 -s 0 -d -1 -p cbr -e 1000 -c 2 -a 0 -i 62 -k AGT 
- -t 0.488000000 -s 0 -d -1 -p cbr -e 1000 -c 2 -a 0 -i 62 -k AGT
h -t 0.488000000 -s 0 -d -1 -p cbr -e 1000 -c 2 -a 0 -i 62 -k AGT
d -t 0.488000000 -s 0 -d -1 -p cbr -e 1020 -c 2 -a 0 -i 57 -k RTR
+ -t 0.496000000 -s 0 -d -1 -p cbr -e 1000 -c 2 -a 0 -i 63 -k AGT 
- -t 0.496000000 -s 0 -d -1 -p cbr -e 1000 -c 2 -a 0 -i 63 -k AGT
h -t 0.496000000 -s 0 -d -1 -p cbr -e 1000 -c 2 -a 0 -i 63 -k AGT
d -t 0.496000000 -s 0 -d -1 -p cbr -e 1020 -c 2 -a 0 -i 58 -k RTR
+ -t 0.504000000 -s 0 -d -1 -p cbr -e 1000 -c 2 -a 0 -i 64 -k AGT 
- -t 0.504000000 -s 0 -d -1 -p cbr -e 1000 -c 2 -a 0 -i 64 -k AGT
h -t 0.504000000 -s 0 -d -1 -p cbr -e 1000 -c 2 -a 0 -i 64 -k AGT
d -t 0.504000000 -s 0 -d -1 -p cbr -e 1020 -c 2 -a 0 -i 59 -k RTR
+ -t 0.512000000 -s 0 -d -1 -p cbr -e 1000 -c 2 -a 0 -i 65 -k AGT 
- -t 0.512000000 -s 0 -d -1 -p cbr -e 1000 -c 2 -a 0 -i 65 -k AGT
h -t 0.512000000 -s 0 -d -1 -p cbr -e 1000 -c 2 -a 0 -i 65 -k AGT
d -t 0.512000000 -s 0 -d -1 -p cbr -e 1020 -c 2 -a 0 -i 60 -k RTR
+ -t 0.520000000 -s 0 -d -1 -p cbr -e 1000 -c 2 -a 0 -i 66 -k AGT 
- -t 0.520000000 -s 0 -d -1 -p cbr -e 1000 -c 2 -a 0 -i 66 -k AGT
h -t 0.520000000 -s 0 -d -1 -p cbr -e 1000 -c 2 -a 0 -i 66 -k AGT
d -t 0.520000000 -s 0 -d -1 -p cbr -e 1020 -c 2 -a 0 -i 61 -k RTR
+ -t 0.528000000 -s 0 -d -1 -p cbr -e 1000 -c 2 -a 0 -i 67 -k AGT 
- -t 0.528000000 -s 0 -d -1 -p cbr -e 1000 -c 2 -a 0 -i 67 -k AGT
h -t 0.528000000 -s 0 -d -1 -p cbr -e 1000 -c 2 -a 0 -i 67 -k AGT
d -t 0.528000000 -s 0 -d -1 -p cbr -e 1020 -c 2 -a 0 -i 62 -k RTR
+ -t 0.536000000 -s 0 -d -1 -p cbr -e 1000 -c 2 -a 0 -i 68 -k AGT 
- -t 0.536000000 -s 0 -d -1 -p cbr -e 1000 -c 2 -a 0 -i 68 -k AGT
h -t 0.536000000 -s 0 -d -1 -p cbr -e 1000 -c 2 -a 0 -i 68 -k AGT
d -t 0.536000000 -s 0 -d -1 -p cbr -e 1020 -c 2 -a 0 -i 63 -k RTR
+ -t 0.544000000 -s 0 -d -1 -p cbr -e 1000 -c 2 -a 0 -i 69 -k AGT 
- -t 0.544000000 -s 0 -d -1 -p cbr -e 1000 -c 2 -a 0 -i 69 -k AGT
h -t 0.544000000 -s 0 -d -1 -p cbr -e 1000 -c 2 -a 0 -i 69 -k AGT
d -t 0.544000000 -s 0 -d -1 -p cbr -e 1020 -c 2 -a 0 -i 64 -k RTR
+ -t 0.552000000 -s 0 -d -1 -p cbr -e 1000 -c 2 -a 0 -i 70 -k AGT 
- -t 0.552000000 -s 0 -d -1 -p cbr -e 1000 -c 2 -a 0 -i 70 -k AGT
h -t 0.552000000 -s 0 -d -1 -p cbr -e 1000 -c 2 -a 0 -i 70 -k AGT
d -t 0.552000000 -s 0 -d -1 -p cbr -e 1020 -c 2 -a 0 -i 65 -k RTR
+ -t 0.560000000 -s 0 -d -1 -p cbr -e 1000 -c 2 -a 0 -i 71 -k AGT 
- -t 0.560000000 -s 0 -d -1 -p cbr -e 1000 -c 2 -a 0 -i 71 -k AGT
h -t 0.560000000 -s 0 -d -1 -p cbr -e 1000 -c 2 -a 0 -i 71 -k AGT
d -t 0.560000000 -s 0 -d -1 -p cbr -e 1020 -c 2 -a 0 -i 66 -k RTR
+ -t 0.568000000 -s 0 -d -1 -p cbr -e 1000 -c 2 -a 0 -i 72 -k AGT 
- -t 0.568000000 -s 0 -d -1 -p cbr -e 1000 -c 2 -a 0 -i 72 -k AGT
h -t 0.568000000 -s 0 -d -1 -p cbr -e 1000 -c 2 -a 0 -i 72 -k AGT
d -t 0.568000000 -s 0 -d -1 -p cbr -e 1020 -c 2 -a 0 -i 67 -k RTR
+ -t 0.576000000 -s 0 -d -1 -p cbr -e 1000 -c 2 -a 0 -i 73 -k AGT 
- -t 0.576000000 -s 0 -d -1 -p cbr -e 1000 -c 2 -a 0 -i 73 -k AGT
h -t 0.576000000 -s 0 -d -1 -p cbr -e 1000 -c 2 -a 0 -i 73 -k AGT
d -t 0.576000000 -s 0 -d -1 -p cbr -e 1020 -c 2 -a 0 -i 68 -k RTR
+ -t 0.584000000 -s 0 -d -1 -p cbr -e 1000 -c 2 -a 0 -i 74 -k AGT 
- -t 0.584000000 -s 0 -d -1 -p cbr -e 1000 -c 2 -a 0 -i 74 -k AGT
h -t 0.584000000 -s 0 -d -1 -p cbr -e 1000 -c 2 -a 0 -i 74 -k AGT
d -t 0.584000000 -s 0 -d -1 -p cbr -e 1020 -c 2 -a 0 -i 69 -k RTR
+ -t 0.592000000 -s 0 -d -1 -p cbr -e 1000 -c 2 -a 0 -i 75 -k AGT 
- -t 0.592000000 -s 0 -d -1 -p cbr -e 1000 -c 2 -a 0 -i 75 -k AGT
h -t 0.592000000 -s 0 -d -1 -p cbr -e 1000 -c 2 -a 0 -i 75 -k AGT
d -t 0.592000000 -s 0 -d -1 -p cbr -e 1020 -c 2 -a 0 -i 70 -k RTR
+ -t 0.600000000 -s 0 -d -1 -p cbr -e 1000 -c 2 -a 0 -i 76 -k AGT 
- -t 0.600000000 -s 0 -d -1 -p cbr -e 1000 -c 2 -a 0 -i 76 -k AGT
h -t 0.600000000 -s 0 -d -1 -p cbr -e 1000 -c 2 -a 0 -i 76 -k AGT
d -t 0.600000000 -s 0 -d -1 -p cbr -e 1020 -c 2 -a 0 -i 71 -k RTR
+ -t 0.608000000 -s 0 -d -1 -p cbr -e 1000 -c 2 -a 0 -i 77 -k AGT 
- -t 0.608000000 -s 0 -d -1 -p cbr -e 1000 -c 2 -a 0 -i 77 -k AGT
h -t 0.608000000 -s 0 -d -1 -p cbr -e 1000 -c 2 -a 0 -i 77 -k AGT
d -t 0.608000000 -s 0 -d -1 -p cbr -e 1020 -c 2 -a 0 -i 72 -k RTR
+ -t 0.616000000 -s 0 -d -1 -p cbr -e 1000 -c 2 -a 0 -i 78 -k AGT 
- -t 0.616000000 -s 0 -d -1 -p cbr -e 1000 -c 2 -a 0 -i 78 -k AGT
h -t 0.616000000 -s 0 -d -1 -p cbr -e 1000 -c 2 -a 0 -i 78 -k AGT
d -t 0.616000000 -s 0 -d -1 -p cbr -e 1020 -c 2 -a 0 -i 73 -k RTR
+ -t 0.624000000 -s 0 -d -1 -p cbr -e 1000 -c 2 -a 0 -i 79 -k AGT 
- -t 0.624000000 -s 0 -d -1 -p cbr -e 1000 -c 2 -a 0 -i 79 -k AGT
h -t 0.624000000 -s 0 -d -1 -p cbr -e 1000 -c 2 -a 0 -i 79 -k AGT
d -t 0.624000000 -s 0 -d -1 -p cbr -e 1020 -c 2 -a 0 -i 74 -k RTR
+ -t 0.632000000 -s 0 -d -1 -p cbr -e 1000 -c 2 -a 0 -i 80 -k AGT 
- -t 0.632000000 -s 0 -d -1 -p cbr -e 1000 -c 2 -a 0 -i 80 -k AGT
h -t 0.632000000 -s 0 -d -1 -p cbr -e 1000 -c 2 -a 0 -i 80 -k AGT
d -t 0.632000000 -s 0 -d -1 -p cbr -e 1020 -c 2 -a 0 -i 75 -k RTR
+ -t 0.640000000 -s 0 -d -1 -p cbr -e 1000 -c 2 -a 0 -i 81 -k AGT 
- -t 0.640000000 -s 0 -d -1 -p cbr -e 1000 -c 2 -a 0 -i 81 -k AGT
h -t 0.640000000 -s 0 -d -1 -p cbr -e 1000 -c 2 -a 0 -i 81 -k AGT
d -t 0.640000000 -s 0 -d -1 -p cbr -e 1020 -c 2 -a 0 -i 76 -k RTR
+ -t 0.648000000 -s 0 -d -1 -p cbr -e 1000 -c 2 -a 0 -i 82 -k AGT 
- -t 0.648000000 -s 0 -d -1 -p cbr -e 1000 -c 2 -a 0 -i 82 -k AGT
h -t 0.648000000 -s 0 -d -1 -p cbr -e 1000 -c 2 -a 0 -i 82 -k AGT
d -t 0.648000000 -s 0 -d -1 -p cbr -e 1020 -c 2 -a 0 -i 77 -k RTR
+ -t 0.656000000 -s 0 -d -1 -p cbr -e 1000 -c 2 -a 0 -i 83 -k AGT 
- -t 0.656000000 -s 0 -d -1 -p cbr -e 1000 -c 2 -a 0 -i 83 -k AGT
h -t 0.656000000 -s 0 -d -1 -p cbr -e 1000 -c 2 -a 0 -i 83 -k AGT
d -t 0.656000000 -s 0 -d -1 -p cbr -e 1020 -c 2 -a 0 -i 78 -k RTR
+ -t 0.664000000 -s 0 -d -1 -p cbr -e 1000 -c 2 -a 0 -i 84 -k AGT 
- -t 0.664000000 -s 0 -d -1 -p cbr -e 1000 -c 2 -a 0 -i 84 -k AGT
h -t 0.664000000 -s 0 -d -1 -p cbr -e 1000 -c 2 -a 0 -i 84 -k AGT
d -t 0.664000000 -s 0 -d -1 -p cbr -e 1020 -c 2 -a 0 -i 79 -k RTR
+ -t 0.672000000 -s 0 -d -1 -p cbr -e 1000 -c 2 -a 0 -i 85 -k AGT 
- -t 0.672000000 -s 0 -d -1 -p cbr -e 1000 -c 2 -a 0 -i 85 -k AGT
h -t 0.672000000 -s 0 -d -1 -p cbr -e 1000 -c 2 -a 0 -i 85 -k AGT
d -t 0.672000000 -s 0 -d -1 -p cbr -e 1020 -c 2 -a 0 -i 80 -k RTR
+ -t 0.680000000 -s 0 -d -1 -p cbr -e 1000 -c 2 -a 0 -i 86 -k AGT 
- -t 0.680000000 -s 0 -d -1 -p cbr -e 1000 -c 2 -a 0 -i 86 -k AGT
h -t 0.680000000 -s 0 -d -1 -p cbr -e 1000 -c 2 -a 0 -i 86 -k AGT
d -t 0.680000000 -s 0 -d -1 -p cbr -e 1020 -c 2 -a 0 -i 81 -k RTR
+ -t 0.688000000 -s 0 -d -1 -p cbr -e 1000 -c 2 -a 0 -i 87 -k AGT 
- -t 0.688000000 -s 0 -d -1 -p cbr -e 1000 -c 2 -a 0 -i 87 -k AGT
h -t 0.688000000 -s 0 -d -1 -p cbr -e 1000 -c 2 -a 0 -i 87 -k AGT
d -t 0.688000000 -s 0 -d -1 -p cbr -e 1020 -c 2 -a 0 -i 82 -k RTR
+ -t 0.696000000 -s 0 -d -1 -p cbr -e 1000 -c 2 -a 0 -i 88 -k AGT 
- -t 0.696000000 -s 0 -d -1 -p cbr -e 1000 -c 2 -a 0 -i 88 -k AGT
h -t 0.696000000 -s 0 -d -1 -p cbr -e 1000 -c 2 -a 0 -i 88 -k AGT
d -t 0.696000000 -s 0 -d -1 -p cbr -e 1020 -c 2 -a 0 -i 83 -k RTR
+ -t 0.704000000 -s 0 -d -1 -p cbr -e 1000 -c 2 -a 0 -i 89 -k AGT 
- -t 0.704000000 -s 0 -d -1 -p cbr -e 1000 -c 2 -a 0 -i 89 -k AGT
h -t 0.704000000 -s 0 -d -1 -p cbr -e 1000 -c 2 -a 0 -i 89 -k AGT
d -t 0.704000000 -s 0 -d -1 -p cbr -e 1020 -c 2 -a 0 -i 84 -k RTR
+ -t 0.712000000 -s 0 -d -1 -p cbr -e 1000 -c 2 -a 0 -i 90 -k AGT 
- -t 0.712000000 -s 0 -d -1 -p cbr -e 1000 -c 2 -a 0 -i 90 -k AGT
h -t 0.712000000 -s 0 -d -1 -p cbr -e 1000 -c 2 -a 0 -i 90 -k AGT
d -t 0.712000000 -s 0 -d -1 -p cbr -e 1020 -c 2 -a 0 -i 85 -k RTR
+ -t 0.720000000 -s 0 -d -1 -p cbr -e 1000 -c 2 -a 0 -i 91 -k AGT 
- -t 0.720000000 -s 0 -d -1 -p cbr -e 1000 -c 2 -a 0 -i 91 -k AGT
h -t 0.720000000 -s 0 -d -1 -p cbr -e 1000 -c 2 -a 0 -i 91 -k AGT
d -t 0.720000000 -s 0 -d -1 -p cbr -e 1020 -c 2 -a 0 -i 86 -k RTR
+ -t 0.728000000 -s 0 -d -1 -p cbr -e 1000 -c 2 -a 0 -i 92 -k AGT 
- -t 0.728000000 -s 0 -d -1 -p cbr -e 1000 -c 2 -a 0 -i 92 -k AGT
h -t 0.728000000 -s 0 -d -1 -p cbr -e 1000 -c 2 -a 0 -i 92 -k AGT
d -t 0.728000000 -s 0 -d -1 -p cbr -e 1020 -c 2 -a 0 -i 87 -k RTR
+ -t 0.736000000 -s 0 -d -1 -p cbr -e 1000 -c 2 -a 0 -i 93 -k AGT 
- -t 0.736000000 -s 0 -d -1 -p cbr -e 1000 -c 2 -a 0 -i 93 -k AGT
h -t 0.736000000 -s 0 -d -1 -p cbr -e 1000 -c 2 -a 0 -i 93 -k AGT
d -t 0.736000000 -s 0 -d -1 -p cbr -e 1020 -c 2 -a 0 -i 88 -k RTR
+ -t 0.744000000 -s 0 -d -1 -p cbr -e 1000 -c 2 -a 0 -i 94 -k AGT 
- -t 0.744000000 -s 0 -d -1 -p cbr -e 1000 -c 2 -a 0 -i 94 -k AGT
h -t 0.744000000 -s 0 -d -1 -p cbr -e 1000 -c 2 -a 0 -i 94 -k AGT
d -t 0.744000000 -s 0 -d -1 -p cbr -e 1020 -c 2 -a 0 -i 89 -k RTR
+ -t 0.752000000 -s 0 -d -1 -p cbr -e 1000 -c 2 -a 0 -i 95 -k AGT 
- -t 0.752000000 -s 0 -d -1 -p cbr -e 1000 -c 2 -a 0 -i 95 -k AGT
h -t 0.752000000 -s 0 -d -1 -p cbr -e 1000 -c 2 -a 0 -i 95 -k AGT
d -t 0.752000000 -s 0 -d -1 -p cbr -e 1020 -c 2 -a 0 -i 90 -k RTR
+ -t 0.760000000 -s 0 -d -1 -p cbr -e 1000 -c 2 -a 0 -i 96 -k AGT 
- -t 0.760000000 -s 0 -d -1 -p cbr -e 1000 -c 2 -a 0 -i 96 -k AGT
h -t 0.760000000 -s 0 -d -1 -p cbr -e 1000 -c 2 -a 0 -i 96 -k AGT
d -t 0.760000000 -s 0 -d -1 -p cbr -e 1020 -c 2 -a 0 -i 91 -k RTR
+ -t 0.768000000 -s 0 -d -1 -p cbr -e 1000 -c 2 -a 0 -i 97 -k AGT 
- -t 0.768000000 -s 0 -d -1 -p cbr -e 1000 -c 2 -a 0 -i 97 -k AGT
h -t 0.768000000 -s 0 -d -1 -p cbr -e 1000 -c 2 -a 0 -i 97 -k AGT
d -t 0.768000000 -s 0 -d -1 -p cbr -e 1020 -c 2 -a 0 -i 92 -k RTR
+ -t 0.776000000 -s 0 -d -1 -p cbr -e 1000 -c 2 -a 0 -i 98 -k AGT 
- -t 0.776000000 -s 0 -d -1 -p cbr -e 1000 -c 2 -a 0 -i 98 -k AGT
h -t 0.776000000 -s 0 -d -1 -p cbr -e 1000 -c 2 -a 0 -i 98 -k AGT
d -t 0.776000000 -s 0 -d -1 -p cbr -e 1020 -c 2 -a 0 -i 93 -k RTR
+ -t 0.784000000 -s 0 -d -1 -p cbr -e 1000 -c 2 -a 0 -i 99 -k AGT 
- -t 0.784000000 -s 0 -d -1 -p cbr -e 1000 -c 2 -a 0 -i 99 -k AGT
h -t 0.784000000 -s 0 -d -1 -p cbr -e 1000 -c 2 -a 0 -i 99 -k AGT
d -t 0.784000000 -s 0 -d -1 -p cbr -e 1020 -c 2 -a 0 -i 94 -k RTR
+ -t 0.792000000 -s 0 -d -1 -p cbr -e 1000 -c 2 -a 0 -i 100 -k AGT 
- -t 0.792000000 -s 0 -d -1 -p cbr -e 1000 -c 2 -a 0 -i 100 -k AGT
h -t 0.792000000 -s 0 -d -1 -p cbr -e 1000 -c 2 -a 0 -i 100 -k AGT
d -t 0.792000000 -s 0 -d -1 -p cbr -e 1020 -c 2 -a 0 -i 95 -k RTR
+ -t 0.800000000 -s 0 -d -1 -p cbr -e 1000 -c 2 -a 0 -i 101 -k AGT 
- -t 0.800000000 -s 0 -d -1 -p cbr -e 1000 -c 2 -a 0 -i 101 -k AGT
h -t 0.800000000 -s 0 -d -1 -p cbr -e 1000 -c 2 -a 0 -i 101 -k AGT
d -t 0.800000000 -s 0 -d -1 -p cbr -e 1020 -c 2 -a 0 -i 96 -k RTR
+ -t 0.808000000 -s 0 -d -1 -p cbr -e 1000 -c 2 -a 0 -i 102 -k AGT 
- -t 0.808000000 -s 0 -d -1 -p cbr -e 1000 -c 2 -a 0 -i 102 -k AGT
h -t 0.808000000 -s 0 -d -1 -p cbr -e 1000 -c 2 -a 0 -i 102 -k AGT
d -t 0.808000000 -s 0 -d -1 -p cbr -e 1020 -c 2 -a 0 -i 97 -k RTR
+ -t 0.816000000 -s 0 -d -1 -p cbr -e 1000 -c 2 -a 0 -i 103 -k AGT 
- -t 0.816000000 -s 0 -d -1 -p cbr -e 1000 -c 2 -a 0 -i 103 -k AGT
h -t 0.816000000 -s 0 -d -1 -p cbr -e 1000 -c 2 -a 0 -i 103 -k AGT
d -t 0.816000000 -s 0 -d -1 -p cbr -e 1020 -c 2 -a 0 -i 98 -k RTR
+ -t 0.824000000 -s 0 -d -1 -p cbr -e 1000 -c 2 -a 0 -i 104 -k AGT 
- -t 0.824000000 -s 0 -d -1 -p cbr -e 1000 -c 2 -a 0 -i 104 -k AGT
h -t 0.824000000 -s 0 -d -1 -p cbr -e 1000 -c 2 -a 0 -i 104 -k AGT
d -t 0.824000000 -s 0 -d -1 -p cbr -e 1020 -c 2 -a 0 -i 99 -k RTR
+ -t 0.832000000 -s 0 -d -1 -p cbr -e 1000 -c 2 -a 0 -i 105 -k AGT 
- -t 0.832000000 -s 0 -d -1 -p cbr -e 1000 -c 2 -a 0 -i 105 -k AGT
h -t 0.832000000 -s 0 -d -1 -p cbr -e 1000 -c 2 -a 0 -i 105 -k AGT
d -t 0.832000000 -s 0 -d -1 -p cbr -e 1020 -c 2 -a 0 -i 100 -k RTR
+ -t 0.840000000 -s 0 -d -1 -p cbr -e 1000 -c 2 -a 0 -i 106 -k AGT 
- -t 0.840000000 -s 0 -d -1 -p cbr -e 1000 -c 2 -a 0 -i 106 -k AGT
h -t 0.840000000 -s 0 -d -1 -p cbr -e 1000 -c 2 -a 0 -i 106 -k AGT
d -t 0.840000000 -s 0 -d -1 -p cbr -e 1020 -c 2 -a 0 -i 101 -k RTR
+ -t 0.848000000 -s 0 -d -1 -p cbr -e 1000 -c 2 -a 0 -i 107 -k AGT 
- -t 0.848000000 -s 0 -d -1 -p cbr -e 1000 -c 2 -a 0 -i 107 -k AGT
h -t 0.848000000 -s 0 -d -1 -p cbr -e 1000 -c 2 -a 0 -i 107 -k AGT
d -t 0.848000000 -s 0 -d -1 -p cbr -e 1020 -c 2 -a 0 -i 102 -k RTR
+ -t 0.856000000 -s 0 -d -1 -p cbr -e 1000 -c 2 -a 0 -i 108 -k AGT 
- -t 0.856000000 -s 0 -d -1 -p cbr -e 1000 -c 2 -a 0 -i 108 -k AGT
h -t 0.856000000 -s 0 -d -1 -p cbr -e 1000 -c 2 -a 0 -i 108 -k AGT
d -t 0.856000000 -s 0 -d -1 -p cbr -e 1020 -c 2 -a 0 -i 103 -k RTR
+ -t 0.864000000 -s 0 -d -1 -p cbr -e 1000 -c 2 -a 0 -i 109 -k AGT 
- -t 0.864000000 -s 0 -d -1 -p cbr -e 1000 -c 2 -a 0 -i 109 -k AGT
h -t 0.864000000 -s 0 -d -1 -p cbr -e 1000 -c 2 -a 0 -i 109 -k AGT
d -t 0.864000000 -s 0 -d -1 -p cbr -e 1020 -c 2 -a 0 -i 104 -k RTR
+ -t 0.872000000 -s 0 -d -1 -p cbr -e 1000 -c 2 -a 0 -i 110 -k AGT 
- -t 0.872000000 -s 0 -d -1 -p cbr -e 1000 -c 2 -a 0 -i 110 -k AGT
h -t 0.872000000 -s 0 -d -1 -p cbr -e 1000 -c 2 -a 0 -i 110 -k AGT
d -t 0.872000000 -s 0 -d -1 -p cbr -e 1020 -c 2 -a 0 -i 105 -k RTR
+ -t 0.880000000 -s 0 -d -1 -p cbr -e 1000 -c 2 -a 0 -i 111 -k AGT 
- -t 0.880000000 -s 0 -d -1 -p cbr -e 1000 -c 2 -a 0 -i 111 -k AGT
h -t 0.880000000 -s 0 -d -1 -p cbr -e 1000 -c 2 -a 0 -i 111 -k AGT
d -t 0.880000000 -s 0 -d -1 -p cbr -e 1020 -c 2 -a 0 -i 106 -k RTR
+ -t 0.888000000 -s 0 -d -1 -p cbr -e 1000 -c 2 -a 0 -i 112 -k AGT 
- -t 0.888000000 -s 0 -d -1 -p cbr -e 1000 -c 2 -a 0 -i 112 -k AGT