s 0.029290548 _1_ RTR  --- 0 message 32 [0 0 0 0] ------- [1:255 -1:255 32 0] 
s 0.029365548 _1_ MAC  --- 0 message 90 [0 ffffffff 1 800] ------- [1:255 -1:255 32 0] 
r 0.030085738 _0_ MAC  --- 0 message 32 [0 ffffffff 1 800] ------- [1:255 -1:255 32 0] 
r 0.030110738 _0_ RTR  --- 0 message 32 [0 ffffffff 1 800] ------- [1:255 -1:255 32 0] 
s 1.000000000 _0_ AGT  --- 1 tcp 40 [0 0 0 0] ------- [0:0 1:0 32 0] [0 0] 0 0
r 1.000000000 _0_ RTR  --- 1 tcp 40 [0 0 0 0] ------- [0:0 1:0 32 0] [0 0] 0 0
s 1.000000000 _0_ RTR  --- 1 tcp 60 [0 0 0 0] ------- [0:0 1:0 32 1] [0 0] 0 0
s 1.000255000 _0_ MAC  --- 0 ARP 86 [0 ffffffff 0 806] ------- [REQUEST 0/0 0/1]
r 1.000943190 _1_ MAC  --- 0 ARP 28 [0 ffffffff 0 806] ------- [REQUEST 0/0 0/1]
s 1.001358190 _1_ MAC  --- 0 RTS 44 [52e 0 1 0] 
r 1.001710381 _0_ MAC  --- 0 RTS 44 [52e 0 1 0] 
s 1.001720381 _0_ MAC  --- 0 CTS 38 [3f4 1 0 0] 
r 1.002024571 _1_ MAC  --- 0 CTS 38 [3f4 1 0 0] 
s 1.002034571 _1_ MAC  --- 0 ARP 86 [13a 0 1 806] ------- [REPLY 1/1 0/0]
r 1.002722762 _0_ MAC  --- 0 ARP 28 [13a 0 1 806] ------- [REPLY 1/1 0/0]
s 1.002732762 _0_ MAC  --- 0 ACK 38 [0 1 0 0] 
r 1.003036952 _1_ MAC  --- 0 ACK 38 [0 1 0 0] 
s 1.003346762 _0_ MAC  --- 0 RTS 44 [62e 1 0 0] 
r 1.003698952 _1_ MAC  --- 0 RTS 44 [62e 1 0 0] 
s 1.003708952 _1_ MAC  --- 0 CTS 38 [4f4 0 0 0] 
r 1.004013143 _0_ MAC  --- 0 CTS 38 [4f4 0 0 0] 
s 1.004023143 _0_ MAC  --- 1 tcp 118 [13a 1 0 800] ------- [0:0 1:0 32 1] [0 0] 0 0
r 1.004967333 _1_ MAC  --- 1 tcp 60 [13a 1 0 800] ------- [0:0 1:0 32 1] [0 0] 1 0
s 1.004977333 _1_ MAC  --- 0 ACK 38 [0 0 0 0] 
r 1.004992333 _1_ AGT  --- 1 tcp 60 [13a 1 0 800] ------- [0:0 1:0 32 1] [0 0] 1 0
s 1.004992333 _1_ AGT  --- 2 ack 40 [0 0 0 0] ------- [1:0 0:0 32 0] [0 0] 0 0
r 1.004992333 _1_ RTR  --- 2 ack 40 [0 0 0 0] ------- [1:0 0:0 32 0] [0 0] 0 0
r 1.005281524 _0_ MAC  --- 0 ACK 38 [0 0 0 0] 
s 1.112189378 _0_ RTR  --- 3 message 32 [0 0 0 0] ------- [0:255 -1:255 32 0] 
s 1.112624378 _0_ MAC  --- 3 message 90 [0 ffffffff 0 800] ------- [0:255 -1:255 32 0] 
r 1.113344568 _1_ MAC  --- 3 message 32 [0 ffffffff 0 800] ------- [0:255 -1:255 32 0] 
r 1.113369568 _1_ RTR  --- 3 message 32 [0 ffffffff 0 800] ------- [0:255 -1:255 32 0] 
s 1.113369568 _1_ RTR  --- 2 ack 80 [0 0 0 0] ------- [1:0 0:0 32 0] [0 0] 0 0
s 1.113604568 _1_ MAC  --- 0 RTS 44 [6ce 0 1 0] 
r 1.113956758 _0_ MAC  --- 0 RTS 44 [6ce 0 1 0] 
s 1.113966758 _0_ MAC  --- 0 CTS 38 [594 1 0 0] 
r 1.114270949 _1_ MAC  --- 0 CTS 38 [594 1 0 0] 
s 1.114280949 _1_ MAC  --- 2 ack 138 [13a 0 1 800] ------- [1:0 0:0 32 0] [0 0] 0 0
r 1.115385139 _0_ MAC  --- 2 ack 80 [13a 0 1 800] ------- [1:0 0:0 32 0] [0 0] 1 0
s 1.115395139 _0_ MAC  --- 0 ACK 38 [0 1 0 0] 
r 1.115410139 _0_ AGT  --- 2 ack 80 [13a 0 1 800] ------- [1:0 0:0 32 0] [0 0] 1 0
s 1.115410139 _0_ AGT  --- 4 tcp 1540 [0 0 0 0] ------- [0:0 1:0 32 0] [1 0] 0 0
r 1.115410139 _0_ RTR  --- 4 tcp 1540 [0 0 0 0] ------- [0:0 1:0 32 0] [1 0] 0 0
s 1.115410139 _0_ RTR  --- 4 tcp 1560 [0 0 0 0] ------- [0:0 1:0 32 1] [1 0] 0 0
s 1.115410139 _0_ AGT  --- 5 tcp 1540 [0 0 0 0] ------- [0:0 1:0 32 0] [2 0] 0 0
r 1.115410139 _0_ RTR  --- 5 tcp 1540 [0 0 0 0] ------- [0:0 1:0 32 0] [2 0] 0 0
s 1.115410139 _0_ RTR  --- 5 tcp 1560 [0 0 0 0] ------- [0:0 1:0 32 1] [2 0] 0 0
r 1.115699330 _1_ MAC  --- 0 ACK 38 [0 1 0 0] 
s 1.115789139 _0_ MAC  --- 0 RTS 44 [350e 1 0 0] 
r 1.116141330 _1_ MAC  --- 0 RTS 44 [350e 1 0 0] 
s 1.116151330 _1_ MAC  --- 0 CTS 38 [33d4 0 0 0] 
r 1.116455520 _0_ MAC  --- 0 CTS 38 [33d4 0 0 0] 
s 1.116465520 _0_ MAC  --- 4 tcp 1618 [13a 1 0 800] ------- [0:0 1:0 32 1] [1 0] 0 0
r 1.129409711 _1_ MAC  --- 4 tcp 1560 [13a 1 0 800] ------- [0:0 1:0 32 1] [1 0] 1 0
s 1.129419711 _1_ MAC  --- 0 ACK 38 [0 0 0 0] 
r 1.129434711 _1_ AGT  --- 4 tcp 1560 [13a 1 0 800] ------- [0:0 1:0 32 1] [1 0] 1 0
s 1.129434711 _1_ AGT  --- 6 ack 40 [0 0 0 0] ------- [1:0 0:0 32 0] [1 0] 0 0
r 1.129434711 _1_ RTR  --- 6 ack 40 [0 0 0 0] ------- [1:0 0:0 32 0] [1 0] 0 0
s 1.129434711 _1_ RTR  --- 6 ack 60 [0 0 0 0] ------- [1:0 0:0 32 0] [1 0] 0 0
r 1.129723901 _0_ MAC  --- 0 ACK 38 [0 0 0 0] 
s 1.130113901 _0_ MAC  --- 0 RTS 44 [350e 1 0 0] 
r 1.130466092 _1_ MAC  --- 0 RTS 44 [350e 1 0 0] 
s 1.130476092 _1_ MAC  --- 0 CTS 38 [33d4 0 0 0] 
r 1.130780282 _0_ MAC  --- 0 CTS 38 [33d4 0 0 0] 
s 1.130790282 _0_ MAC  --- 5 tcp 1618 [13a 1 0 800] ------- [0:0 1:0 32 1] [2 0] 0 0
r 1.143734473 _1_ MAC  --- 5 tcp 1560 [13a 1 0 800] ------- [0:0 1:0 32 1] [2 0] 1 0
s 1.143744473 _1_ MAC  --- 0 ACK 38 [0 0 0 0] 
r 1.143759473 _1_ AGT  --- 5 tcp 1560 [13a 1 0 800] ------- [0:0 1:0 32 1] [2 0] 1 0
s 1.143759473 _1_ AGT  --- 7 ack 40 [0 0 0 0] ------- [1:0 0:0 32 0] [2 0] 0 0
r 1.143759473 _1_ RTR  --- 7 ack 40 [0 0 0 0] ------- [1:0 0:0 32 0] [2 0] 0 0
s 1.143759473 _1_ RTR  --- 7 ack 60 [0 0 0 0] ------- [1:0 0:0 32 0] [2 0] 0 0
r 1.144048663 _0_ MAC  --- 0 ACK 38 [0 0 0 0] 
s 1.144218473 _1_ MAC  --- 0 RTS 44 [62e 0 1 0] 
r 1.144570663 _0_ MAC  --- 0 RTS 44 [62e 0 1 0] 
s 1.144580663 _0_ MAC  --- 0 CTS 38 [4f4 1 0 0] 
r 1.144884854 _1_ MAC  --- 0 CTS 38 [4f4 1 0 0] 
s 1.144894854 _1_ MAC  --- 6 ack 118 [13a 0 1 800] ------- [1:0 0:0 32 0] [1 0] 0 0
r 1.145839044 _0_ MAC  --- 6 ack 60 [13a 0 1 800] ------- [1:0 0:0 32 0] [1 0] 1 0
s 1.145849044 _0_ MAC  --- 0 ACK 38 [0 1 0 0] 
r 1.145864044 _0_ AGT  --- 6 ack 60 [13a 0 1 800] ------- [1:0 0:0 32 0] [1 0] 1 0
s 1.145864044 _0_ AGT  --- 8 tcp 1540 [0 0 0 0] ------- [0:0 1:0 32 0] [3 0] 0 0
r 1.145864044 _0_ RTR  --- 8 tcp 1540 [0 0 0 0] ------- [0:0 1:0 32 0] [3 0] 0 0
s 1.145864044 _0_ RTR  --- 8 tcp 1560 [0 0 0 0] ------- [0:0 1:0 32 1] [3 0] 0 0
s 1.145864044 _0_ AGT  --- 9 tcp 1540 [0 0 0 0] ------- [0:0 1:0 32 0] [4 0] 0 0
r 1.145864044 _0_ RTR  --- 9 tcp 1540 [0 0 0 0] ------- [0:0 1:0 32 0] [4 0] 0 0
s 1.145864044 _0_ RTR  --- 9 tcp 1560 [0 0 0 0] ------- [0:0 1:0 32 1] [4 0] 0 0
r 1.146153235 _1_ MAC  --- 0 ACK 38 [0 1 0 0] 
s 1.146403235 _1_ MAC  --- 0 RTS 44 [62e 0 1 0] 
r 1.146755425 _0_ MAC  --- 0 RTS 44 [62e 0 1 0] 
s 1.146765425 _0_ MAC  --- 0 CTS 38 [4f4 1 0 0] 
r 1.147069615 _1_ MAC  --- 0 CTS 38 [4f4 1 0 0] 
s 1.147079615 _1_ MAC  --- 7 ack 118 [13a 0 1 800] ------- [1:0 0:0 32 0] [2 0] 0 0
r 1.148023806 _0_ MAC  --- 7 ack 60 [13a 0 1 800] ------- [1:0 0:0 32 0] [2 0] 1 0
s 1.148033806 _0_ MAC  --- 0 ACK 38 [0 1 0 0] 
r 1.148048806 _0_ AGT  --- 7 ack 60 [13a 0 1 800] ------- [1:0 0:0 32 0] [2 0] 1 0
s 1.148048806 _0_ AGT  --- 10 tcp 1540 [0 0 0 0] ------- [0:0 1:0 32 0] [5 0] 0 0
r 1.148048806 _0_ RTR  --- 10 tcp 1540 [0 0 0 0] ------- [0:0 1:0 32 0] [5 0] 0 0
s 1.148048806 _0_ RTR  --- 10 tcp 1560 [0 0 0 0] ------- [0:0 1:0 32 1] [5 0] 0 0
s 1.148048806 _0_ AGT  --- 11 tcp 1540 [0 0 0 0] ------- [0:0 1:0 32 0] [6 0] 0 0
r 1.148048806 _0_ RTR  --- 11 tcp 1540 [0 0 0 0] ------- [0:0 1:0 32 0] [6 0] 0 0
s 1.148048806 _0_ RTR  --- 11 tcp 1560 [0 0 0 0] ------- [0:0 1:0 32 1] [6 0] 0 0
r 1.148337996 _1_ MAC  --- 0 ACK 38 [0 1 0 0] 
s 1.148407806 _0_ MAC  --- 0 RTS 44 [350e 1 0 0] 
r 1.148759996 _1_ MAC  --- 0 RTS 44 [350e 1 0 0] 
s 1.148769996 _1_ MAC  --- 0 CTS 38 [33d4 0 0 0] 
r 1.149074187 _0_ MAC  --- 0 CTS 38 [33d4 0 0 0] 
s 1.149084187 _0_ MAC  --- 8 tcp 1618 [13a 1 0 800] ------- [0:0 1:0 32 1] [3 0] 0 0
r 1.162028377 _1_ MAC  --- 8 tcp 1560 [13a 1 0 800] ------- [0:0 1:0 32 1] [3 0] 1 0
s 1.162038377 _1_ MAC  --- 0 ACK 38 [0 0 0 0] 
r 1.162053377 _1_ AGT  --- 8 tcp 1560 [13a 1 0 800] ------- [0:0 1:0 32 1] [3 0] 1 0
s 1.162053377 _1_ AGT  --- 12 ack 40 [0 0 0 0] ------- [1:0 0:0 32 0] [3 0] 0 0
r 1.162053377 _1_ RTR  --- 12 ack 40 [0 0 0 0] ------- [1:0 0:0 32 0] [3 0] 0 0
s 1.162053377 _1_ RTR  --- 12 ack 60 [0 0 0 0] ------- [1:0 0:0 32 0] [3 0] 0 0
r 1.162342568 _0_ MAC  --- 0 ACK 38 [0 0 0 0] 
s 1.162412568 _0_ MAC  --- 0 RTS 44 [350e 1 0 0] 
r 1.162764758 _1_ MAC  --- 0 RTS 44 [350e 1 0 0] 
s 1.162774758 _1_ MAC  --- 0 CTS 38 [33d4 0 0 0] 
r 1.163078949 _0_ MAC  --- 0 CTS 38 [33d4 0 0 0] 
s 1.163088949 _0_ MAC  --- 9 tcp 1618 [13a 1 0 800] ------- [0:0 1:0 32 1] [4 0] 0 0
r 1.176033139 _1_ MAC  --- 9 tcp 1560 [13a 1 0 800] ------- [0:0 1:0 32 1] [4 0] 1 0
s 1.176043139 _1_ MAC  --- 0 ACK 38 [0 0 0 0] 
r 1.176058139 _1_ AGT  --- 9 tcp 1560 [13a 1 0 800] ------- [0:0 1:0 32 1] [4 0] 1 0
s 1.176058139 _1_ AGT  --- 13 ack 40 [0 0 0 0] ------- [1:0 0:0 32 0] [4 0] 0 0
r 1.176058139 _1_ RTR  --- 13 ack 40 [0 0 0 0] ------- [1:0 0:0 32 0] [4 0] 0 0
s 1.176058139 _1_ RTR  --- 13 ack 60 [0 0 0 0] ------- [1:0 0:0 32 0] [4 0] 0 0
r 1.176347330 _0_ MAC  --- 0 ACK 38 [0 0 0 0] 
s 1.176597139 _1_ MAC  --- 0 RTS 44 [62e 0 1 0] 
r 1.176949330 _0_ MAC  --- 0 RTS 44 [62e 0 1 0] 
s 1.176959330 _0_ MAC  --- 0 CTS 38 [4f4 1 0 0] 
r 1.177263520 _1_ MAC  --- 0 CTS 38 [4f4 1 0 0] 
s 1.177273520 _1_ MAC  --- 12 ack 118 [13a 0 1 800] ------- [1:0 0:0 32 0] [3 0] 0 0
r 1.178217711 _0_ MAC  --- 12 ack 60 [13a 0 1 800] ------- [1:0 0:0 32 0] [3 0] 1 0
s 1.178227711 _0_ MAC  --- 0 ACK 38 [0 1 0 0] 
r 1.178242711 _0_ AGT  --- 12 ack 60 [13a 0 1 800] ------- [1:0 0:0 32 0] [3 0] 1 0
s 1.178242711 _0_ AGT  --- 14 tcp 1540 [0 0 0 0] ------- [0:0 1:0 32 0] [7 0] 0 0
r 1.178242711 _0_ RTR  --- 14 tcp 1540 [0 0 0 0] ------- [0:0 1:0 32 0] [7 0] 0 0
s 1.178242711 _0_ RTR  --- 14 tcp 1560 [0 0 0 0] ------- [0:0 1:0 32 1] [7 0] 0 0
s 1.178242711 _0_ AGT  --- 15 tcp 1540 [0 0 0 0] ------- [0:0 1:0 32 0] [8 0] 0 0
r 1.178242711 _0_ RTR  --- 15 tcp 1540 [0 0 0 0] ------- [0:0 1:0 32 0] [8 0] 0 0
s 1.178242711 _0_ RTR  --- 15 tcp 1560 [0 0 0 0] ------- [0:0 1:0 32 1] [8 0] 0 0
r 1.178531901 _1_ MAC  --- 0 ACK 38 [0 1 0 0] 
s 1.178641711 _0_ MAC  --- 0 RTS 44 [350e 1 0 0] 
r 1.178993901 _1_ MAC  --- 0 RTS 44 [350e 1 0 0] 
s 1.179003901 _1_ MAC  --- 0 CTS 38 [33d4 0 0 0] 
r 1.179308092 _0_ MAC  --- 0 CTS 38 [33d4 0 0 0] 
s 1.179318092 _0_ MAC  --- 10 tcp 1618 [13a 1 0 800] ------- [0:0 1:0 32 1] [5 0] 0 0
r 1.192262282 _1_ MAC  --- 10 tcp 1560 [13a 1 0 800] ------- [0:0 1:0 32 1] [5 0] 1 0
s 1.192272282 _1_ MAC  --- 0 ACK 38 [0 0 0 0] 
r 1.192287282 _1_ AGT  --- 10 tcp 1560 [13a 1 0 800] ------- [0:0 1:0 32 1] [5 0] 1 0
s 1.192287282 _1_ AGT  --- 16 ack 40 [0 0 0 0] ------- [1:0 0:0 32 0] [5 0] 0 0
r 1.192287282 _1_ RTR  --- 16 ack 40 [0 0 0 0] ------- [1:0 0:0 32 0] [5 0] 0 0
s 1.192287282 _1_ RTR  --- 16 ack 60 [0 0 0 0] ------- [1:0 0:0 32 0] [5 0] 0 0
r 1.192576472 _0_ MAC  --- 0 ACK 38 [0 0 0 0] 
s 1.192806472 _0_ MAC  --- 0 RTS 44 [350e 1 0 0] 
r 1.193158663 _1_ MAC  --- 0 RTS 44 [350e 1 0 0] 
s 1.193168663 _1_ MAC  --- 0 CTS 38 [33d4 0 0 0] 
r 1.193472853 _0_ MAC  --- 0 CTS 38 [33d4 0 0 0] 
s 1.193482853 _0_ MAC  --- 11 tcp 1618 [13a 1 0 800] ------- [0:0 1:0 32 1] [6 0] 0 0
r 1.206427044 _1_ MAC  --- 11 tcp 1560 [13a 1 0 800] ------- [0:0 1:0 32 1] [6 0] 1 0
s 1.206437044 _1_ MAC  --- 0 ACK 38 [0 0 0 0] 
r 1.206452044 _1_ AGT  --- 11 tcp 1560 [13a 1 0 800] ------- [0:0 1:0 32 1] [6 0] 1 0
s 1.206452044 _1_ AGT  --- 17 ack 40 [0 0 0 0] ------- [1:0 0:0 32 0] [6 0] 0 0
r 1.206452044 _1_ RTR  --- 17 ack 40 [0 0 0 0] ------- [1:0 0:0 32 0] [6 0] 0 0
s 1.206452044 _1_ RTR  --- 17 ack 60 [0 0 0 0] ------- [1:0 0:0 32 0] [6 0] 0 0
r 1.206741234 _0_ MAC  --- 0 ACK 38 [0 0 0 0] 
s 1.207011044 _1_ MAC  --- 0 RTS 44 [62e 0 1 0] 
r 1.207363234 _0_ MAC  --- 0 RTS 44 [62e 0 1 0] 
s 1.207373234 _0_ MAC  --- 0 CTS 38 [4f4 1 0 0] 
r 1.207677425 _1_ MAC  --- 0 CTS 38 [4f4 1 0 0] 
s 1.207687425 _1_ MAC  --- 13 ack 118 [13a 0 1 800] ------- [1:0 0:0 32 0] [4 0] 0 0
r 1.208631615 _0_ MAC  --- 13 ack 60 [13a 0 1 800] ------- [1:0 0:0 32 0] [4 0] 1 0
s 1.208641615 _0_ MAC  --- 0 ACK 38 [0 1 0 0] 
r 1.208656615 _0_ AGT  --- 13 ack 60 [13a 0 1 800] ------- [1:0 0:0 32 0] [4 0] 1 0
s 1.208656615 _0_ AGT  --- 18 tcp 1540 [0 0 0 0] ------- [0:0 1:0 32 0] [9 0] 0 0
r 1.208656615 _0_ RTR  --- 18 tcp 1540 [0 0 0 0] ------- [0:0 1:0 32 0] [9 0] 0 0
s 1.208656615 _0_ RTR  --- 18 tcp 1560 [0 0 0 0] ------- [0:0 1:0 32 1] [9 0] 0 0
s 1.208656615 _0_ AGT  --- 19 tcp 1540 [0 0 0 0] ------- [0:0 1:0 32 0] [10 0] 0 0
r 1.208656615 _0_ RTR  --- 19 tcp 1540 [0 0 0 0] ------- [0:0 1:0 32 0] [10 0] 0 0
s 1.208656615 _0_ RTR  --- 19 tcp 1560 [0 0 0 0] ------- [0:0 1:0 32 1] [10 0] 0 0
r 1.208945806 _1_ MAC  --- 0 ACK 38 [0 1 0 0] 
s 1.209375615 _0_ MAC  --- 0 RTS 44 [350e 1 0 0] 
r 1.209727806 _1_ MAC  --- 0 RTS 44 [350e 1 0 0] 
s 1.209737806 _1_ MAC  --- 0 CTS 38 [33d4 0 0 0] 
r 1.210041996 _0_ MAC  --- 0 CTS 38 [33d4 0 0 0] 
s 1.210051996 _0_ MAC  --- 14 tcp 1618 [13a 1 0 800] ------- [0:0 1:0 32 1] [7 0] 0 0
r 1.222996187 _1_ MAC  --- 14 tcp 1560 [13a 1 0 800] ------- [0:0 1:0 32 1] [7 0] 1 0
s 1.223006187 _1_ MAC  --- 0 ACK 38 [0 0 0 0] 
r 1.223021187 _1_ AGT  --- 14 tcp 1560 [13a 1 0 800] ------- [0:0 1:0 32 1] [7 0] 1 0
s 1.223021187 _1_ AGT  --- 20 ack 40 [0 0 0 0] ------- [1:0 0:0 32 0] [7 0] 0 0
r 1.223021187 _1_ RTR  --- 20 ack 40 [0 0 0 0] ------- [1:0 0:0 32 0] [7 0] 0 0
s 1.223021187 _1_ RTR  --- 20 ack 60 [0 0 0 0] ------- [1:0 0:0 32 0] [7 0] 0 0
r 1.223310377 _0_ MAC  --- 0 ACK 38 [0 0 0 0] 
s 1.223400187 _1_ MAC  --- 0 RTS 44 [62e 0 1 0] 
r 1.223752377 _0_ MAC  --- 0 RTS 44 [62e 0 1 0] 
s 1.223762377 _0_ MAC  --- 0 CTS 38 [4f4 1 0 0] 
r 1.224066568 _1_ MAC  --- 0 CTS 38 [4f4 1 0 0] 
s 1.224076568 _1_ MAC  --- 16 ack 118 [13a 0 1 800] ------- [1:0 0:0 32 0] [5 0] 0 0
r 1.225020758 _0_ MAC  --- 16 ack 60 [13a 0 1 800] ------- [1:0 0:0 32 0] [5 0] 1 0
s 1.225030758 _0_ MAC  --- 0 ACK 38 [0 1 0 0] 
r 1.225045758 _0_ AGT  --- 16 ack 60 [13a 0 1 800] ------- [1:0 0:0 32 0] [5 0] 1 0
s 1.225045758 _0_ AGT  --- 21 tcp 1540 [0 0 0 0] ------- [0:0 1:0 32 0] [11 0] 0 0
r 1.225045758 _0_ RTR  --- 21 tcp 1540 [0 0 0 0] ------- [0:0 1:0 32 0] [11 0] 0 0
s 1.225045758 _0_ RTR  --- 21 tcp 1560 [0 0 0 0] ------- [0:0 1:0 32 1] [11 0] 0 0
s 1.225045758 _0_ AGT  --- 22 tcp 1540 [0 0 0 0] ------- [0:0 1:0 32 0] [12 0] 0 0
r 1.225045758 _0_ RTR  --- 22 tcp 1540 [0 0 0 0] ------- [0:0 1:0 32 0] [12 0] 0 0
s 1.225045758 _0_ RTR  --- 22 tcp 1560 [0 0 0 0] ------- [0:0 1:0 32 1] [12 0] 0 0
r 1.225334949 _1_ MAC  --- 0 ACK 38 [0 1 0 0] 
s 1.225744949 _1_ MAC  --- 0 RTS 44 [62e 0 1 0] 
r 1.226097139 _0_ MAC  --- 0 RTS 44 [62e 0 1 0] 
s 1.226107139 _0_ MAC  --- 0 CTS 38 [4f4 1 0 0] 
r 1.226411330 _1_ MAC  --- 0 CTS 38 [4f4 1 0 0] 
s 1.226421330 _1_ MAC  --- 17 ack 118 [13a 0 1 800] ------- [1:0 0:0 32 0] [6 0] 0 0
r 1.227365520 _0_ MAC  --- 17 ack 60 [13a 0 1 800] ------- [1:0 0:0 32 0] [6 0] 1 0
s 1.227375520 _0_ MAC  --- 0 ACK 38 [0 1 0 0] 
r 1.227390520 _0_ AGT  --- 17 ack 60 [13a 0 1 800] ------- [1:0 0:0 32 0] [6 0] 1 0
s 1.227390520 _0_ AGT  --- 23 tcp 1540 [0 0 0 0] ------- [0:0 1:0 32 0] [13 0] 0 0
r 1.227390520 _0_ RTR  --- 23 tcp 1540 [0 0 0 0] ------- [0:0 1:0 32 0] [13 0] 0 0
s 1.227390520 _0_ RTR  --- 23 tcp 1560 [0 0 0 0] ------- [0:0 1:0 32 1] [13 0] 0 0
s 1.227390520 _0_ AGT  --- 24 tcp 1540 [0 0 0 0] ------- [0:0 1:0 32 0] [14 0] 0 0
r 1.227390520 _0_ RTR  --- 24 tcp 1540 [0 0 0 0] ------- [0:0 1:0 32 0] [14 0] 0 0
s 1.227390520 _0_ RTR  --- 24 tcp 1560 [0 0 0 0] ------- [0:0 1:0 32 1] [14 0] 0 0
r 1.227679710 _1_ MAC  --- 0 ACK 38 [0 1 0 0] 
s 1.227769710 _1_ MAC  --- 0 RTS 44 [62e 0 1 0] 
r 1.228121901 _0_ MAC  --- 0 RTS 44 [62e 0 1 0] 
s 1.228131901 _0_ MAC  --- 0 CTS 38 [4f4 1 0 0] 
r 1.228436091 _1_ MAC  --- 0 CTS 38 [4f4 1 0 0] 
s 1.228446091 _1_ MAC  --- 20 ack 118 [13a 0 1 800] ------- [1:0 0:0 32 0] [7 0] 0 0
r 1.229390282 _0_ MAC  --- 20 ack 60 [13a 0 1 800] ------- [1:0 0:0 32 0] [7 0] 1 0
s 1.229400282 _0_ MAC  --- 0 ACK 38 [0 1 0 0] 
r 1.229415282 _0_ AGT  --- 20 ack 60 [13a 0 1 800] ------- [1:0 0:0 32 0] [7 0] 1 0
s 1.229415282 _0_ AGT  --- 25 tcp 1540 [0 0 0 0] ------- [0:0 1:0 32 0] [15 0] 0 0
r 1.229415282 _0_ RTR  --- 25 tcp 1540 [0 0 0 0] ------- [0:0 1:0 32 0] [15 0] 0 0
s 1.229415282 _0_ RTR  --- 25 tcp 1560 [0 0 0 0] ------- [0:0 1:0 32 1] [15 0] 0 0
s 1.229415282 _0_ AGT  --- 26 tcp 1540 [0 0 0 0] ------- [0:0 1:0 32 0] [16 0] 0 0
r 1.229415282 _0_ RTR  --- 26 tcp 1540 [0 0 0 0] ------- [0:0 1:0 32 0] [16 0] 0 0
s 1.229415282 _0_ RTR  --- 26 tcp 1560 [0 0 0 0] ------- [0:0 1:0 32 1] [16 0] 0 0
r 1.229704472 _1_ MAC  --- 0 ACK 38 [0 1 0 0] 
s 1.229874282 _0_ MAC  --- 0 RTS 44 [350e 1 0 0] 
r 1.230226472 _1_ MAC  --- 0 RTS 44 [350e 1 0 0] 
s 1.230236472 _1_ MAC  --- 0 CTS 38 [33d4 0 0 0] 
r 1.230540663 _0_ MAC  --- 0 CTS 38 [33d4 0 0 0] 
s 1.230550663 _0_ MAC  --- 15 tcp 1618 [13a 1 0 800] ------- [0:0 1:0 32 1] [8 0] 0 0
r 1.243494853 _1_ MAC  --- 15 tcp 1560 [13a 1 0 800] ------- [0:0 1:0 32 1] [8 0] 1 0
s 1.243504853 _1_ MAC  --- 0 ACK 38 [0 0 0 0] 
r 1.243519853 _1_ AGT  --- 15 tcp 1560 [13a 1 0 800] ------- [0:0 1:0 32 1] [8 0] 1 0
s 1.243519853 _1_ AGT  --- 27 ack 40 [0 0 0 0] ------- [1:0 0:0 32 0] [8 0] 0 0
r 1.243519853 _1_ RTR  --- 27 ack 40 [0 0 0 0] ------- [1:0 0:0 32 0] [8 0] 0 0
s 1.243519853 _1_ RTR  --- 27 ack 60 [0 0 0 0] ------- [1:0 0:0 32 0] [8 0] 0 0
r 1.243809044 _0_ MAC  --- 0 ACK 38 [0 0 0 0] 
s 1.244058853 _1_ MAC  --- 0 RTS 44 [62e 0 1 0] 
r 1.244411044 _0_ MAC  --- 0 RTS 44 [62e 0 1 0] 
s 1.244421044 _0_ MAC  --- 0 CTS 38 [4f4 1 0 0] 
r 1.244725234 _1_ MAC  --- 0 CTS 38 [4f4 1 0 0] 
s 1.244735234 _1_ MAC  --- 27 ack 118 [13a 0 1 800] ------- [1:0 0:0 32 0] [8 0] 0 0
r 1.245679425 _0_ MAC  --- 27 ack 60 [13a 0 1 800] ------- [1:0 0:0 32 0] [8 0] 1 0
s 1.245689425 _0_ MAC  --- 0 ACK 38 [0 1 0 0] 
r 1.245704425 _0_ AGT  --- 27 ack 60 [13a 0 1 800] ------- [1:0 0:0 32 0] [8 0] 1 0
s 1.245704425 _0_ AGT  --- 28 tcp 1540 [0 0 0 0] ------- [0:0 1:0 32 0] [17 0] 0 0
r 1.245704425 _0_ RTR  --- 28 tcp 1540 [0 0 0 0] ------- [0:0 1:0 32 0] [17 0] 0 0
s 1.245704425 _0_ RTR  --- 28 tcp 1560 [0 0 0 0] ------- [0:0 1:0 32 1] [17 0] 0 0
s 1.245704425 _0_ AGT  --- 29 tcp 1540 [0 0 0 0] ------- [0:0 1:0 32 0] [18 0] 0 0
r 1.245704425 _0_ RTR  --- 29 tcp 1540 [0 0 0 0] ------- [0:0 1:0 32 0] [18 0] 0 0
s 1.245704425 _0_ RTR  --- 29 tcp 1560 [0 0 0 0] ------- [0:0 1:0 32 1] [18 0] 0 0
r 1.245993615 _1_ MAC  --- 0 ACK 38 [0 1 0 0] 
s 1.246223425 _0_ MAC  --- 0 RTS 44 [350e 1 0 0] 
r 1.246575615 _1_ MAC  --- 0 RTS 44 [350e 1 0 0] 
s 1.246585615 _1_ MAC  --- 0 CTS 38 [33d4 0 0 0] 
r 1.246889806 _0_ MAC  --- 0 CTS 38 [33d4 0 0 0] 
s 1.246899806 _0_ MAC  --- 18 tcp 1618 [13a 1 0 800] ------- [0:0 1:0 32 1] [9 0] 0 0
r 1.259843996 _1_ MAC  --- 18 tcp 1560 [13a 1 0 800] ------- [0:0 1:0 32 1] [9 0] 1 0
s 1.259853996 _1_ MAC  --- 0 ACK 38 [0 0 0 0] 
r 1.259868996 _1_ AGT  --- 18 tcp 1560 [13a 1 0 800] ------- [0:0 1:0 32 1] [9 0] 1 0
s 1.259868996 _1_ AGT  --- 30 ack 40 [0 0 0 0] ------- [1:0 0:0 32 0] [9 0] 0 0
r 1.259868996 _1_ RTR  --- 30 ack 40 [0 0 0 0] ------- [1:0 0:0 32 0] [9 0] 0 0
s 1.259868996 _1_ RTR  --- 30 ack 60 [0 0 0 0] ------- [1:0 0:0 32 0] [9 0] 0 0
r 1.260158187 _0_ MAC  --- 0 ACK 38 [0 0 0 0] 
s 1.260287996 _1_ MAC  --- 0 RTS 44 [62e 0 1 0] 
r 1.260640187 _0_ MAC  --- 0 RTS 44 [62e 0 1 0] 
s 1.260650187 _0_ MAC  --- 0 CTS 38 [4f4 1 0 0] 
r 1.260954377 _1_ MAC  --- 0 CTS 38 [4f4 1 0 0] 
s 1.260964377 _1_ MAC  --- 30 ack 118 [13a 0 1 800] ------- [1:0 0:0 32 0] [9 0] 0 0
r 1.261908567 _0_ MAC  --- 30 ack 60 [13a 0 1 800] ------- [1:0 0:0 32 0] [9 0] 1 0
s 1.261918567 _0_ MAC  --- 0 ACK 38 [0 1 0 0] 
r 1.261933567 _0_ AGT  --- 30 ack 60 [13a 0 1 800] ------- [1:0 0:0 32 0] [9 0] 1 0
s 1.261933567 _0_ AGT  --- 31 tcp 1540 [0 0 0 0] ------- [0:0 1:0 32 0] [19 0] 0 0
r 1.261933567 _0_ RTR  --- 31 tcp 1540 [0 0 0 0] ------- [0:0 1:0 32 0] [19 0] 0 0
s 1.261933567 _0_ RTR  --- 31 tcp 1560 [0 0 0 0] ------- [0:0 1:0 32 1] [19 0] 0 0
s 1.261933567 _0_ AGT  --- 32 tcp 1540 [0 0 0 0] ------- [0:0 1:0 32 0] [20 0] 0 0
r 1.261933567 _0_ RTR  --- 32 tcp 1540 [0 0 0 0] ------- [0:0 1:0 32 0] [20 0] 0 0
s 1.261933567 _0_ RTR  --- 32 tcp 1560 [0 0 0 0] ------- [0:0 1:0 32 1] [20 0] 0 0
r 1.262222758 _1_ MAC  --- 0 ACK 38 [0 1 0 0] 
s 1.262492567 _0_ MAC  --- 0 RTS 44 [350e 1 0 0] 
r 1.262844758 _1_ MAC  --- 0 RTS 44 [350e 1 0 0] 
s 1.262854758 _1_ MAC  --- 0 CTS 38 [33d4 0 0 0] 
r 1.263158948 _0_ MAC  --- 0 CTS 38 [33d4 0 0 0] 
s 1.263168948 _0_ MAC  --- 19 tcp 1618 [13a 1 0 800] ------- [0:0 1:0 32 1] [10 0] 0 0
r 1.276113139 _1_ MAC  --- 19 tcp 1560 [13a 1 0 800] ------- [0:0 1:0 32 1] [10 0] 1 0
s 1.276123139 _1_ MAC  --- 0 ACK 38 [0 0 0 0] 
r 1.276138139 _1_ AGT  --- 19 tcp 1560 [13a 1 0 800] ------- [0:0 1:0 32 1] [10 0] 1 0
s 1.276138139 _1_ AGT  --- 33 ack 40 [0 0 0 0] ------- [1:0 0:0 32 0] [10 0] 0 0
r 1.276138139 _1_ RTR  --- 33 ack 40 [0 0 0 0] ------- [1:0 0:0 32 0] [10 0] 0 0
s 1.276138139 _1_ RTR  --- 33 ack 60 [0 0 0 0] ------- [1:0 0:0 32 0] [10 0] 0 0
r 1.276427329 _0_ MAC  --- 0 ACK 38 [0 0 0 0] 
s 1.276577139 _1_ MAC  --- 0 RTS 44 [62e 0 1 0] 
r 1.276929329 _0_ MAC  --- 0 RTS 44 [62e 0 1 0] 
s 1.276939329 _0_ MAC  --- 0 CTS 38 [4f4 1 0 0] 
r 1.277243520 _1_ MAC  --- 0 CTS 38 [4f4 1 0 0] 
s 1.277253520 _1_ MAC  --- 33 ack 118 [13a 0 1 800] ------- [1:0 0:0 32 0] [10 0] 0 0
r 1.278197710 _0_ MAC  --- 33 ack 60 [13a 0 1 800] ------- [1:0 0:0 32 0] [10 0] 1 0
s 1.278207710 _0_ MAC  --- 0 ACK 38 [0 1 0 0] 
r 1.278222710 _0_ AGT  --- 33 ack 60 [13a 0 1 800] ------- [1:0 0:0 32 0] [10 0] 1 0
s 1.278222710 _0_ AGT  --- 34 tcp 1540 [0 0 0 0] ------- [0:0 1:0 32 0] [21 0] 0 0
r 1.278222710 _0_ RTR  --- 34 tcp 1540 [0 0 0 0] ------- [0:0 1:0 32 0] [21 0] 0 0
s 1.278222710 _0_ RTR  --- 34 tcp 1560 [0 0 0 0] ------- [0:0 1:0 32 1] [21 0] 0 0
s 1.278222710 _0_ AGT  --- 35 tcp 1540 [0 0 0 0] ------- [0:0 1:0 32 0] [22 0] 0 0
r 1.278222710 _0_ RTR  --- 35 tcp 1540 [0 0 0 0] ------- [0:0 1:0 32 0] [22 0] 0 0
s 1.278222710 _0_ RTR  --- 35 tcp 1560 [0 0 0 0] ------- [0:0 1:0 32 1] [22 0] 0 0
r 1.278511901 _1_ MAC  --- 0 ACK 38 [0 1 0 0] 
s 1.279001710 _0_ MAC  --- 0 RTS 44 [350e 1 0 0] 
r 1.279353901 _1_ MAC  --- 0 RTS 44 [350e 1 0 0] 
s 1.279363901 _1_ MAC  --- 0 CTS 38 [33d4 0 0 0] 
r 1.279668091 _0_ MAC  --- 0 CTS 38 [33d4 0 0 0] 
s 1.279678091 _0_ MAC  --- 21 tcp 1618 [13a 1 0 800] ------- [0:0 1:0 32 1] [11 0] 0 0
r 1.292622282 _1_ MAC  --- 21 tcp 1560 [13a 1 0 800] ------- [0:0 1:0 32 1] [11 0] 1 0
s 1.292632282 _1_ MAC  --- 0 ACK 38 [0 0 0 0] 
r 1.292647282 _1_ AGT  --- 21 tcp 1560 [13a 1 0 800] ------- [0:0 1:0 32 1] [11 0] 1 0
s 1.292647282 _1_ AGT  --- 36 ack 40 [0 0 0 0] ------- [1:0 0:0 32 0] [11 0] 0 0
r 1.292647282 _1_ RTR  --- 36 ack 40 [0 0 0 0] ------- [1:0 0:0 32 0] [11 0] 0 0
s 1.292647282 _1_ RTR  --- 36 ack 60 [0 0 0 0] ------- [1:0 0:0 32 0] [11 0] 0 0
r 1.292936472 _0_ MAC  --- 0 ACK 38 [0 0 0 0] 
s 1.293186282 _1_ MAC  --- 0 RTS 44 [62e 0 1 0] 
r 1.293538472 _0_ MAC  --- 0 RTS 44 [62e 0 1 0] 
s 1.293548472 _0_ MAC  --- 0 CTS 38 [4f4 1 0 0] 
r 1.293852663 _1_ MAC  --- 0 CTS 38 [4f4 1 0 0] 
s 1.293862663 _1_ MAC  --- 36 ack 118 [13a 0 1 800] ------- [1:0 0:0 32 0] [11 0] 0 0
r 1.294806853 _0_ MAC  --- 36 ack 60 [13a 0 1 800] ------- [1:0 0:0 32 0] [11 0] 1 0
s 1.294816853 _0_ MAC  --- 0 ACK 38 [0 1 0 0] 
r 1.294831853 _0_ AGT  --- 36 ack 60 [13a 0 1 800] ------- [1:0 0:0 32 0] [11 0] 1 0
s 1.294831853 _0_ AGT  --- 37 tcp 1540 [0 0 0 0] ------- [0:0 1:0 32 0] [23 0] 0 0
r 1.294831853 _0_ RTR  --- 37 tcp 1540 [0 0 0 0] ------- [0:0 1:0 32 0] [23 0] 0 0
s 1.294831853 _0_ RTR  --- 37 tcp 1560 [0 0 0 0] ------- [0:0 1:0 32 1] [23 0] 0 0
s 1.294831853 _0_ AGT  --- 38 tcp 1540 [0 0 0 0] ------- [0:0 1:0 32 0] [24 0] 0 0
r 1.294831853 _0_ RTR  --- 38 tcp 1540 [0 0 0 0] ------- [0:0 1:0 32 0] [24 0] 0 0
s 1.294831853 _0_ RTR  --- 38 tcp 1560 [0 0 0 0] ------- [0:0 1:0 32 1] [24 0] 0 0
r 1.295121044 _1_ MAC  --- 0 ACK 38 [0 1 0 0] 
s 1.295570853 _0_ MAC  --- 0 RTS 44 [350e 1 0 0] 
r 1.295923044 _1_ MAC  --- 0 RTS 44 [350e 1 0 0] 
s 1.295933044 _1_ MAC  --- 0 CTS 38 [33d4 0 0 0] 
r 1.296237234 _0_ MAC  --- 0 CTS 38 [33d4 0 0 0] 
s 1.296247234 _0_ MAC  --- 22 tcp 1618 [13a 1 0 800] ------- [0:0 1:0 32 1] [12 0] 0 0
r 1.309191424 _1_ MAC  --- 22 tcp 1560 [13a 1 0 800] ------- [0:0 1:0 32 1] [12 0] 1 0
s 1.309201424 _1_ MAC  --- 0 ACK 38 [0 0 0 0] 
r 1.309216424 _1_ AGT  --- 22 tcp 1560 [13a 1 0 800] ------- [0:0 1:0 32 1] [12 0] 1 0
s 1.309216424 _1_ AGT  --- 39 ack 40 [0 0 0 0] ------- [1:0 0:0 32 0] [12 0] 0 0
r 1.309216424 _1_ RTR  --- 39 ack 40 [0 0 0 0] ------- [1:0 0:0 32 0] [12 0] 0 0
s 1.309216424 _1_ RTR  --- 39 ack 60 [0 0 0 0] ------- [1:0 0:0 32 0] [12 0] 0 0
r 1.309505615 _0_ MAC  --- 0 ACK 38 [0 0 0 0] 
s 1.309675424 _1_ MAC  --- 0 RTS 44 [62e 0 1 0] 
r 1.310027615 _0_ MAC  --- 0 RTS 44 [62e 0 1 0] 
s 1.310037615 _0_ MAC  --- 0 CTS 38 [4f4 1 0 0] 
r 1.310341805 _1_ MAC  --- 0 CTS 38 [4f4 1 0 0] 
s 1.310351805 _1_ MAC  --- 39 ack 118 [13a 0 1 800] ------- [1:0 0:0 32 0] [12 0] 0 0
r 1.311295996 _0_ MAC  --- 39 ack 60 [13a 0 1 800] ------- [1:0 0:0 32 0] [12 0] 1 0
s 1.311305996 _0_ MAC  --- 0 ACK 38 [0 1 0 0] 
r 1.311320996 _0_ AGT  --- 39 ack 60 [13a 0 1 800] ------- [1:0 0:0 32 0] [12 0] 1 0
s 1.311320996 _0_ AGT  --- 40 tcp 1540 [0 0 0 0] ------- [0:0 1:0 32 0] [25 0] 0 0
r 1.311320996 _0_ RTR  --- 40 tcp 1540 [0 0 0 0] ------- [0:0 1:0 32 0] [25 0] 0 0
s 1.311320996 _0_ RTR  --- 40 tcp 1560 [0 0 0 0] ------- [0:0 1:0 32 1] [25 0] 0 0
s 1.311320996 _0_ AGT  --- 41 tcp 1540 [0 0 0 0] ------- [0:0 1:0 32 0] [26 0] 0 0
r 1.311320996 _0_ RTR  --- 41 tcp 1540 [0 0 0 0] ------- [0:0 1:0 32 0] [26 0] 0 0
s 1.311320996 _0_ RTR  --- 41 tcp 1560 [0 0 0 0] ------- [0:0 1:0 32 1] [26 0] 0 0
r 1.311610186 _1_ MAC  --- 0 ACK 38 [0 1 0 0] 
s 1.311899996 _0_ MAC  --- 0 RTS 44 [350e 1 0 0] 
r 1.312252186 _1_ MAC  --- 0 RTS 44 [350e 1 0 0] 
s 1.312262186 _1_ MAC  --- 0 CTS 38 [33d4 0 0 0] 
r 1.312566377 _0_ MAC  --- 0 CTS 38 [33d4 0 0 0] 
s 1.312576377 _0_ MAC  --- 23 tcp 1618 [13a 1 0 800] ------- [0:0 1:0 32 1] [13 0] 0 0
r 1.325520567 _1_ MAC  --- 23 tcp 1560 [13a 1 0 800] ------- [0:0 1:0 32 1] [13 0] 1 0
s 1.325530567 _1_ MAC  --- 0 ACK 38 [0 0 0 0] 
r 1.325545567 _1_ AGT  --- 23 tcp 1560 [13a 1 0 800] ------- [0:0 1:0 32 1] [13 0] 1 0
s 1.325545567 _1_ AGT  --- 42 ack 40 [0 0 0 0] ------- [1:0 0:0 32 0] [13 0] 0 0
r 1.325545567 _1_ RTR  --- 42 ack 40 [0 0 0 0] ------- [1:0 0:0 32 0] [13 0] 0 0
s 1.325545567 _1_ RTR  --- 42 ack 60 [0 0 0 0] ------- [1:0 0:0 32 0] [13 0] 0 0
r 1.325834758 _0_ MAC  --- 0 ACK 38 [0 0 0 0] 
s 1.326164567 _1_ MAC  --- 0 RTS 44 [62e 0 1 0] 
s 1.326164758 _0_ MAC  --- 0 RTS 44 [350e 1 0 0] 
s 1.327410758 _0_ MAC  --- 0 RTS 44 [350e 1 0 0] 
r 1.327762948 _1_ MAC  --- 0 RTS 44 [350e 1 0 0] 
s 1.327772948 _1_ MAC  --- 0 CTS 38 [33d4 0 0 0] 
r 1.328077139 _0_ MAC  --- 0 CTS 38 [33d4 0 0 0] 
s 1.328087139 _0_ MAC  --- 24 tcp 1618 [13a 1 0 800] ------- [0:0 1:0 32 1] [14 0] 0 0
r 1.341031329 _1_ MAC  --- 24 tcp 1560 [13a 1 0 800] ------- [0:0 1:0 32 1] [14 0] 1 0
s 1.341041329 _1_ MAC  --- 0 ACK 38 [0 0 0 0] 
r 1.341056329 _1_ AGT  --- 24 tcp 1560 [13a 1 0 800] ------- [0:0 1:0 32 1] [14 0] 1 0
s 1.341056329 _1_ AGT  --- 43 ack 40 [0 0 0 0] ------- [1:0 0:0 32 0] [14 0] 0 0
r 1.341056329 _1_ RTR  --- 43 ack 40 [0 0 0 0] ------- [1:0 0:0 32 0] [14 0] 0 0
s 1.341056329 _1_ RTR  --- 43 ack 60 [0 0 0 0] ------- [1:0 0:0 32 0] [14 0] 0 0
r 1.341345520 _0_ MAC  --- 0 ACK 38 [0 0 0 0] 
s 1.341875329 _1_ MAC  --- 0 RTS 44 [62e 0 1 0] 
s 1.341875520 _0_ MAC  --- 0 RTS 44 [350e 1 0 0] 
s 1.342681710 _1_ MAC  --- 0 RTS 44 [62e 0 1 0] 
r 1.343033901 _0_ MAC  --- 0 RTS 44 [62e 0 1 0] 
s 1.343043901 _0_ MAC  --- 0 CTS 38 [4f4 1 0 0] 
r 1.343348091 _1_ MAC  --- 0 CTS 38 [4f4 1 0 0] 
s 1.343358091 _1_ MAC  --- 42 ack 118 [13a 0 1 800] ------- [1:0 0:0 32 0] [13 0] 0 0
r 1.344302281 _0_ MAC  --- 42 ack 60 [13a 0 1 800] ------- [1:0 0:0 32 0] [13 0] 1 0
s 1.344312281 _0_ MAC  --- 0 ACK 38 [0 1 0 0] 
r 1.344327281 _0_ AGT  --- 42 ack 60 [13a 0 1 800] ------- [1:0 0:0 32 0] [13 0] 1 0
s 1.344327281 _0_ AGT  --- 44 tcp 1540 [0 0 0 0] ------- [0:0 1:0 32 0] [27 0] 0 0
r 1.344327281 _0_ RTR  --- 44 tcp 1540 [0 0 0 0] ------- [0:0 1:0 32 0] [27 0] 0 0
s 1.344327281 _0_ RTR  --- 44 tcp 1560 [0 0 0 0] ------- [0:0 1:0 32 1] [27 0] 0 0
s 1.344327281 _0_ AGT  --- 45 tcp 1540 [0 0 0 0] ------- [0:0 1:0 32 0] [28 0] 0 0
r 1.344327281 _0_ RTR  --- 45 tcp 1540 [0 0 0 0] ------- [0:0 1:0 32 0] [28 0] 0 0
s 1.344327281 _0_ RTR  --- 45 tcp 1560 [0 0 0 0] ------- [0:0 1:0 32 1] [28 0] 0 0
r 1.344616472 _1_ MAC  --- 0 ACK 38 [0 1 0 0] 
s 1.344986472 _1_ MAC  --- 0 RTS 44 [62e 0 1 0] 
r 1.345338662 _0_ MAC  --- 0 RTS 44 [62e 0 1 0] 
s 1.345348662 _0_ MAC  --- 0 CTS 38 [4f4 1 0 0] 
r 1.345652853 _1_ MAC  --- 0 CTS 38 [4f4 1 0 0] 
s 1.345662853 _1_ MAC  --- 43 ack 118 [13a 0 1 800] ------- [1:0 0:0 32 0] [14 0] 0 0
r 1.346607043 _0_ MAC  --- 43 ack 60 [13a 0 1 800] ------- [1:0 0:0 32 0] [14 0] 1 0
s 1.346617043 _0_ MAC  --- 0 ACK 38 [0 1 0 0] 
r 1.346632043 _0_ AGT  --- 43 ack 60 [13a 0 1 800] ------- [1:0 0:0 32 0] [14 0] 1 0
s 1.346632043 _0_ AGT  --- 46 tcp 1540 [0 0 0 0] ------- [0:0 1:0 32 0] [29 0] 0 0
r 1.346632043 _0_ RTR  --- 46 tcp 1540 [0 0 0 0] ------- [0:0 1:0 32 0] [29 0] 0 0
s 1.346632043 _0_ RTR  --- 46 tcp 1560 [0 0 0 0] ------- [0:0 1:0 32 1] [29 0] 0 0
s 1.346632043 _0_ AGT  --- 47 tcp 1540 [0 0 0 0] ------- [0:0 1:0 32 0] [30 0] 0 0
r 1.346632043 _0_ RTR  --- 47 tcp 1540 [0 0 0 0] ------- [0:0 1:0 32 0] [30 0] 0 0
s 1.346632043 _0_ RTR  --- 47 tcp 1560 [0 0 0 0] ------- [0:0 1:0 32 1] [30 0] 0 0
r 1.346921234 _1_ MAC  --- 0 ACK 38 [0 1 0 0] 
s 1.347591043 _0_ MAC  --- 0 RTS 44 [350e 1 0 0] 
r 1.347943234 _1_ MAC  --- 0 RTS 44 [350e 1 0 0] 
s 1.347953234 _1_ MAC  --- 0 CTS 38 [33d4 0 0 0] 
r 1.348257424 _0_ MAC  --- 0 CTS 38 [33d4 0 0 0] 
s 1.348267424 _0_ MAC  --- 25 tcp 1618 [13a 1 0 800] ------- [0:0 1:0 32 1] [15 0] 0 0
r 1.361211615 _1_ MAC  --- 25 tcp 1560 [13a 1 0 800] ------- [0:0 1:0 32 1] [15 0] 1 0
s 1.361221615 _1_ MAC  --- 0 ACK 38 [0 0 0 0] 
r 1.361236615 _1_ AGT  --- 25 tcp 1560 [13a 1 0 800] ------- [0:0 1:0 32 1] [15 0] 1 0
s 1.361236615 _1_ AGT  --- 48 ack 40 [0 0 0 0] ------- [1:0 0:0 32 0] [15 0] 0 0
r 1.361236615 _1_ RTR  --- 48 ack 40 [0 0 0 0] ------- [1:0 0:0 32 0] [15 0] 0 0
s 1.361236615 _1_ RTR  --- 48 ack 60 [0 0 0 0] ------- [1:0 0:0 32 0] [15 0] 0 0
r 1.361525805 _0_ MAC  --- 0 ACK 38 [0 0 0 0] 