+ 0 0 2 tcp 40 ------- 0 0.0 5.0 0 0
- 0 0 2 tcp 40 ------- 0 0.0 5.0 0 0
r 0.010003 0 2 tcp 40 ------- 0 0.0 5.0 0 0
+ 0.010003 2 3 tcp 40 ------- 0 0.0 5.0 0 0
- 0.010003 2 3 tcp 40 ------- 0 0.0 5.0 0 0
r 0.020006 2 3 tcp 40 ------- 0 0.0 5.0 0 0
+ 0.020006 3 5 tcp 40 ------- 0 0.0 5.0 0 0
- 0.020006 3 5 tcp 40 ------- 0 0.0 5.0 0 0
r 0.03001 3 5 tcp 40 ------- 0 0.0 5.0 0 0
+ 0.03001 5 3 ack 40 ------- 0 5.0 0.0 0 1
- 0.03001 5 3 ack 40 ------- 0 5.0 0.0 0 1
r 0.040013 5 3 ack 40 ------- 0 5.0 0.0 0 1
+ 0.040013 3 2 ack 40 ------- 0 5.0 0.0 0 1
- 0.040013 3 2 ack 40 ------- 0 5.0 0.0 0 1
r 0.050016 3 2 ack 40 ------- 0 5.0 0.0 0 1
+ 0.050016 2 0 ack 40 ------- 0 5.0 0.0 0 1
- 0.050016 2 0 ack 40 ------- 0 5.0 0.0 0 1
r 0.060019 2 0 ack 40 ------- 0 5.0 0.0 0 1
+ 0.060019 0 2 tcp 1540 ------- 0 0.0 5.0 1 2
- 0.060019 0 2 tcp 1540 ------- 0 0.0 5.0 1 2
+ 0.060019 0 2 tcp 1540 ------- 0 0.0 5.0 2 3
- 0.060142 0 2 tcp 1540 ------- 0 0.0 5.0 2 3
r 0.070142 0 2 tcp 1540 ------- 0 0.0 5.0 1 2
+ 0.070142 2 3 tcp 1540 ------- 0 0.0 5.0 1 2
- 0.070142 2 3 tcp 1540 ------- 0 0.0 5.0 1 2
r 0.070266 0 2 tcp 1540 ------- 0 0.0 5.0 2 3
+ 0.070266 2 3 tcp 1540 ------- 0 0.0 5.0 2 3
- 0.070266 2 3 tcp 1540 ------- 0 0.0 5.0 2 3
r 0.080266 2 3 tcp 1540 ------- 0 0.0 5.0 1 2
+ 0.080266 3 5 tcp 1540 ------- 0 0.0 5.0 1 2
- 0.080266 3 5 tcp 1540 ------- 0 0.0 5.0 1 2
r 0.080389 2 3 tcp 1540 ------- 0 0.0 5.0 2 3
+ 0.080389 3 5 tcp 1540 ------- 0 0.0 5.0 2 3
- 0.080389 3 5 tcp 1540 ------- 0 0.0 5.0 2 3
r 0.090389 3 5 tcp 1540 ------- 0 0.0 5.0 1 2
+ 0.090389 5 3 ack 40 ------- 0 5.0 0.0 1 4
- 0.090389 5 3 ack 40 ------- 0 5.0 0.0 1 4
r 0.090512 3 5 tcp 1540 ------- 0 0.0 5.0 2 3
+ 0.090512 5 3 ack 40 ------- 0 5.0 0.0 2 5
- 0.090512 5 3 ack 40 ------- 0 5.0 0.0 2 5
r 0.100392 5 3 ack 40 ------- 0 5.0 0.0 1 4
+ 0.100392 3 2 ack 40 ------- 0 5.0 0.0 1 4
- 0.100392 3 2 ack 40 ------- 0 5.0 0.0 1 4
r 0.100515 5 3 ack 40 ------- 0 5.0 0.0 2 5
+ 0.100515 3 2 ack 40 ------- 0 5.0 0.0 2 5
- 0.100515 3 2 ack 40 ------- 0 5.0 0.0 2 5
r 0.110395 3 2 ack 40 ------- 0 5.0 0.0 1 4
+ 0.110395 2 0 ack 40 ------- 0 5.0 0.0 1 4
- 0.110395 2 0 ack 40 ------- 0 5.0 0.0 1 4
r 0.110518 3 2 ack 40 ------- 0 5.0 0.0 2 5
+ 0.110518 2 0 ack 40 ------- 0 5.0 0.0 2 5
- 0.110518 2 0 ack 40 ------- 0 5.0 0.0 2 5
r 0.120398 2 0 ack 40 ------- 0 5.0 0.0 1 4
+ 0.120398 0 2 tcp 1540 ------- 0 0.0 5.0 3 6
- 0.120398 0 2 tcp 1540 ------- 0 0.0 5.0 3 6
+ 0.120398 0 2 tcp 1540 ------- 0 0.0 5.0 4 7
r 0.120522 2 0 ack 40 ------- 0 5.0 0.0 2 5
+ 0.120522 0 2 tcp 1540 ------- 0 0.0 5.0 5 8
+ 0.120522 0 2 tcp 1540 ------- 0 0.0 5.0 6 9
- 0.120522 0 2 tcp 1540 ------- 0 0.0 5.0 4 7
- 0.120645 0 2 tcp 1540 ------- 0 0.0 5.0 5 8
- 0.120768 0 2 tcp 1540 ------- 0 0.0 5.0 6 9
r 0.130522 0 2 tcp 1540 ------- 0 0.0 5.0 3 6
+ 0.130522 2 3 tcp 1540 ------- 0 0.0 5.0 3 6
- 0.130522 2 3 tcp 1540 ------- 0 0.0 5.0 3 6
r 0.130645 0 2 tcp 1540 ------- 0 0.0 5.0 4 7
+ 0.130645 2 3 tcp 1540 ------- 0 0.0 5.0 4 7
- 0.130645 2 3 tcp 1540 ------- 0 0.0 5.0 4 7
r 0.130768 0 2 tcp 1540 ------- 0 0.0 5.0 5 8
+ 0.130768 2 3 tcp 1540 ------- 0 0.0 5.0 5 8
- 0.130768 2 3 tcp 1540 ------- 0 0.0 5.0 5 8
r 0.130891 0 2 tcp 1540 ------- 0 0.0 5.0 6 9
+ 0.130891 2 3 tcp 1540 ------- 0 0.0 5.0 6 9
- 0.130891 2 3 tcp 1540 ------- 0 0.0 5.0 6 9
r 0.140645 2 3 tcp 1540 ------- 0 0.0 5.0 3 6
+ 0.140645 3 5 tcp 1540 ------- 0 0.0 5.0 3 6
- 0.140645 3 5 tcp 1540 ------- 0 0.0 5.0 3 6
r 0.140768 2 3 tcp 1540 ------- 0 0.0 5.0 4 7
+ 0.140768 3 5 tcp 1540 ------- 0 0.0 5.0 4 7
- 0.140768 3 5 tcp 1540 ------- 0 0.0 5.0 4 7
r 0.140891 2 3 tcp 1540 ------- 0 0.0 5.0 5 8
+ 0.140891 3 5 tcp 1540 ------- 0 0.0 5.0 5 8
- 0.140891 3 5 tcp 1540 ------- 0 0.0 5.0 5 8
r 0.141014 2 3 tcp 1540 ------- 0 0.0 5.0 6 9
+ 0.141014 3 5 tcp 1540 ------- 0 0.0 5.0 6 9
- 0.141014 3 5 tcp 1540 ------- 0 0.0 5.0 6 9
r 0.150768 3 5 tcp 1540 ------- 0 0.0 5.0 3 6
+ 0.150768 5 3 ack 40 ------- 0 5.0 0.0 3 10
- 0.150768 5 3 ack 40 ------- 0 5.0 0.0 3 10
r 0.150891 3 5 tcp 1540 ------- 0 0.0 5.0 4 7
+ 0.150891 5 3 ack 40 ------- 0 5.0 0.0 4 11
- 0.150891 5 3 ack 40 ------- 0 5.0 0.0 4 11
r 0.151014 3 5 tcp 1540 ------- 0 0.0 5.0 5 8
+ 0.151014 5 3 ack 40 ------- 0 5.0 0.0 5 12
- 0.151014 5 3 ack 40 ------- 0 5.0 0.0 5 12
r 0.151138 3 5 tcp 1540 ------- 0 0.0 5.0 6 9
+ 0.151138 5 3 ack 40 ------- 0 5.0 0.0 6 13
- 0.151138 5 3 ack 40 ------- 0 5.0 0.0 6 13
r 0.160771 5 3 ack 40 ------- 0 5.0 0.0 3 10
+ 0.160771 3 2 ack 40 ------- 0 5.0 0.0 3 10
- 0.160771 3 2 ack 40 ------- 0 5.0 0.0 3 10
r 0.160894 5 3 ack 40 ------- 0 5.0 0.0 4 11
+ 0.160894 3 2 ack 40 ------- 0 5.0 0.0 4 11
- 0.160894 3 2 ack 40 ------- 0 5.0 0.0 4 11
r 0.161018 5 3 ack 40 ------- 0 5.0 0.0 5 12
+ 0.161018 3 2 ack 40 ------- 0 5.0 0.0 5 12
- 0.161018 3 2 ack 40 ------- 0 5.0 0.0 5 12
r 0.161141 5 3 ack 40 ------- 0 5.0 0.0 6 13
+ 0.161141 3 2 ack 40 ------- 0 5.0 0.0 6 13
- 0.161141 3 2 ack 40 ------- 0 5.0 0.0 6 13
r 0.170774 3 2 ack 40 ------- 0 5.0 0.0 3 10
+ 0.170774 2 0 ack 40 ------- 0 5.0 0.0 3 10
- 0.170774 2 0 ack 40 ------- 0 5.0 0.0 3 10
r 0.170898 3 2 ack 40 ------- 0 5.0 0.0 4 11
+ 0.170898 2 0 ack 40 ------- 0 5.0 0.0 4 11
- 0.170898 2 0 ack 40 ------- 0 5.0 0.0 4 11
r 0.171021 3 2 ack 40 ------- 0 5.0 0.0 5 12
+ 0.171021 2 0 ack 40 ------- 0 5.0 0.0 5 12
- 0.171021 2 0 ack 40 ------- 0 5.0 0.0 5 12
r 0.171144 3 2 ack 40 ------- 0 5.0 0.0 6 13
+ 0.171144 2 0 ack 40 ------- 0 5.0 0.0 6 13
- 0.171144 2 0 ack 40 ------- 0 5.0 0.0 6 13
r 0.180778 2 0 ack 40 ------- 0 5.0 0.0 3 10
+ 0.180778 0 2 tcp 1540 ------- 0 0.0 5.0 7 14
- 0.180778 0 2 tcp 1540 ------- 0 0.0 5.0 7 14
+ 0.180778 0 2 tcp 1540 ------- 0 0.0 5.0 8 15
- 0.180901 0 2 tcp 1540 ------- 0 0.0 5.0 8 15
r 0.180901 2 0 ack 40 ------- 0 5.0 0.0 4 11
+ 0.180901 0 2 tcp 1540 ------- 0 0.0 5.0 9 16
+ 0.180901 0 2 tcp 1540 ------- 0 0.0 5.0 10 17
- 0.181024 0 2 tcp 1540 ------- 0 0.0 5.0 9 16
r 0.181024 2 0 ack 40 ------- 0 5.0 0.0 5 12
+ 0.181024 0 2 tcp 1540 ------- 0 0.0 5.0 11 18
+ 0.181024 0 2 tcp 1540 ------- 0 0.0 5.0 12 19
- 0.181147 0 2 tcp 1540 ------- 0 0.0 5.0 10 17
r 0.181147 2 0 ack 40 ------- 0 5.0 0.0 6 13
+ 0.181147 0 2 tcp 1540 ------- 0 0.0 5.0 13 20
+ 0.181147 0 2 tcp 1540 ------- 0 0.0 5.0 14 21
- 0.18127 0 2 tcp 1540 ------- 0 0.0 5.0 11 18
- 0.181394 0 2 tcp 1540 ------- 0 0.0 5.0 12 19
- 0.181517 0 2 tcp 1540 ------- 0 0.0 5.0 13 20
- 0.18164 0 2 tcp 1540 ------- 0 0.0 5.0 14 21
r 0.190901 0 2 tcp 1540 ------- 0 0.0 5.0 7 14
+ 0.190901 2 3 tcp 1540 ------- 0 0.0 5.0 7 14
- 0.190901 2 3 tcp 1540 ------- 0 0.0 5.0 7 14
r 0.191024 0 2 tcp 1540 ------- 0 0.0 5.0 8 15
+ 0.191024 2 3 tcp 1540 ------- 0 0.0 5.0 8 15
- 0.191024 2 3 tcp 1540 ------- 0 0.0 5.0 8 15
r 0.191147 0 2 tcp 1540 ------- 0 0.0 5.0 9 16
+ 0.191147 2 3 tcp 1540 ------- 0 0.0 5.0 9 16
- 0.191147 2 3 tcp 1540 ------- 0 0.0 5.0 9 16
r 0.19127 0 2 tcp 1540 ------- 0 0.0 5.0 10 17
+ 0.19127 2 3 tcp 1540 ------- 0 0.0 5.0 10 17
- 0.19127 2 3 tcp 1540 ------- 0 0.0 5.0 10 17
r 0.191394 0 2 tcp 1540 ------- 0 0.0 5.0 11 18
+ 0.191394 2 3 tcp 1540 ------- 0 0.0 5.0 11 18
- 0.191394 2 3 tcp 1540 ------- 0 0.0 5.0 11 18
r 0.191517 0 2 tcp 1540 ------- 0 0.0 5.0 12 19
+ 0.191517 2 3 tcp 1540 ------- 0 0.0 5.0 12 19
- 0.191517 2 3 tcp 1540 ------- 0 0.0 5.0 12 19
r 0.19164 0 2 tcp 1540 ------- 0 0.0 5.0 13 20
+ 0.19164 2 3 tcp 1540 ------- 0 0.0 5.0 13 20
- 0.19164 2 3 tcp 1540 ------- 0 0.0 5.0 13 20
r 0.191763 0 2 tcp 1540 ------- 0 0.0 5.0 14 21
+ 0.191763 2 3 tcp 1540 ------- 0 0.0 5.0 14 21
- 0.191763 2 3 tcp 1540 ------- 0 0.0 5.0 14 21
r 0.201024 2 3 tcp 1540 ------- 0 0.0 5.0 7 14
+ 0.201024 3 5 tcp 1540 ------- 0 0.0 5.0 7 14
- 0.201024 3 5 tcp 1540 ------- 0 0.0 5.0 7 14
r 0.201147 2 3 tcp 1540 ------- 0 0.0 5.0 8 15
+ 0.201147 3 5 tcp 1540 ------- 0 0.0 5.0 8 15
- 0.201147 3 5 tcp 1540 ------- 0 0.0 5.0 8 15
r 0.20127 2 3 tcp 1540 ------- 0 0.0 5.0 9 16
+ 0.20127 3 5 tcp 1540 ------- 0 0.0 5.0 9 16
- 0.20127 3 5 tcp 1540 ------- 0 0.0 5.0 9 16
r 0.201394 2 3 tcp 1540 ------- 0 0.0 5.0 10 17
+ 0.201394 3 5 tcp 1540 ------- 0 0.0 5.0 10 17
- 0.201394 3 5 tcp 1540 ------- 0 0.0 5.0 10 17
r 0.201517 2 3 tcp 1540 ------- 0 0.0 5.0 11 18
+ 0.201517 3 5 tcp 1540 ------- 0 0.0 5.0 11 18
- 0.201517 3 5 tcp 1540 ------- 0 0.0 5.0 11 18
r 0.20164 2 3 tcp 1540 ------- 0 0.0 5.0 12 19
+ 0.20164 3 5 tcp 1540 ------- 0 0.0 5.0 12 19
- 0.20164 3 5 tcp 1540 ------- 0 0.0 5.0 12 19
r 0.201763 2 3 tcp 1540 ------- 0 0.0 5.0 13 20
+ 0.201763 3 5 tcp 1540 ------- 0 0.0 5.0 13 20
- 0.201763 3 5 tcp 1540 ------- 0 0.0 5.0 13 20
r 0.201886 2 3 tcp 1540 ------- 0 0.0 5.0 14 21
+ 0.201886 3 5 tcp 1540 ------- 0 0.0 5.0 14 21
- 0.201886 3 5 tcp 1540 ------- 0 0.0 5.0 14 21
r 0.211147 3 5 tcp 1540 ------- 0 0.0 5.0 7 14
+ 0.211147 5 3 ack 40 ------- 0 5.0 0.0 7 22
- 0.211147 5 3 ack 40 ------- 0 5.0 0.0 7 22
r 0.21127 3 5 tcp 1540 ------- 0 0.0 5.0 8 15
+ 0.21127 5 3 ack 40 ------- 0 5.0 0.0 8 23
- 0.21127 5 3 ack 40 ------- 0 5.0 0.0 8 23
r 0.211394 3 5 tcp 1540 ------- 0 0.0 5.0 9 16
+ 0.211394 5 3 ack 40 ------- 0 5.0 0.0 9 24
- 0.211394 5 3 ack 40 ------- 0 5.0 0.0 9 24
r 0.211517 3 5 tcp 1540 ------- 0 0.0 5.0 10 17
+ 0.211517 5 3 ack 40 ------- 0 5.0 0.0 10 25
- 0.211517 5 3 ack 40 ------- 0 5.0 0.0 10 25
r 0.21164 3 5 tcp 1540 ------- 0 0.0 5.0 11 18
+ 0.21164 5 3 ack 40 ------- 0 5.0 0.0 11 26
- 0.21164 5 3 ack 40 ------- 0 5.0 0.0 11 26
r 0.211763 3 5 tcp 1540 ------- 0 0.0 5.0 12 19
+ 0.211763 5 3 ack 40 ------- 0 5.0 0.0 12 27
- 0.211763 5 3 ack 40 ------- 0 5.0 0.0 12 27
r 0.211886 3 5 tcp 1540 ------- 0 0.0 5.0 13 20
+ 0.211886 5 3 ack 40 ------- 0 5.0 0.0 13 28
- 0.211886 5 3 ack 40 ------- 0 5.0 0.0 13 28
r 0.21201 3 5 tcp 1540 ------- 0 0.0 5.0 14 21
+ 0.21201 5 3 ack 40 ------- 0 5.0 0.0 14 29
- 0.21201 5 3 ack 40 ------- 0 5.0 0.0 14 29
r 0.22115 5 3 ack 40 ------- 0 5.0 0.0 7 22
+ 0.22115 3 2 ack 40 ------- 0 5.0 0.0 7 22
- 0.22115 3 2 ack 40 ------- 0 5.0 0.0 7 22
r 0.221274 5 3 ack 40 ------- 0 5.0 0.0 8 23
+ 0.221274 3 2 ack 40 ------- 0 5.0 0.0 8 23
- 0.221274 3 2 ack 40 ------- 0 5.0 0.0 8 23
r 0.221397 5 3 ack 40 ------- 0 5.0 0.0 9 24
+ 0.221397 3 2 ack 40 ------- 0 5.0 0.0 9 24
- 0.221397 3 2 ack 40 ------- 0 5.0 0.0 9 24
r 0.22152 5 3 ack 40 ------- 0 5.0 0.0 10 25
+ 0.22152 3 2 ack 40 ------- 0 5.0 0.0 10 25
- 0.22152 3 2 ack 40 ------- 0 5.0 0.0 10 25
r 0.221643 5 3 ack 40 ------- 0 5.0 0.0 11 26
+ 0.221643 3 2 ack 40 ------- 0 5.0 0.0 11 26
- 0.221643 3 2 ack 40 ------- 0 5.0 0.0 11 26
r 0.221766 5 3 ack 40 ------- 0 5.0 0.0 12 27
+ 0.221766 3 2 ack 40 ------- 0 5.0 0.0 12 27
- 0.221766 3 2 ack 40 ------- 0 5.0 0.0 12 27
r 0.22189 5 3 ack 40 ------- 0 5.0 0.0 13 28
+ 0.22189 3 2 ack 40 ------- 0 5.0 0.0 13 28
- 0.22189 3 2 ack 40 ------- 0 5.0 0.0 13 28
r 0.222013 5 3 ack 40 ------- 0 5.0 0.0 14 29
+ 0.222013 3 2 ack 40 ------- 0 5.0 0.0 14 29
- 0.222013 3 2 ack 40 ------- 0 5.0 0.0 14 29
r 0.231154 3 2 ack 40 ------- 0 5.0 0.0 7 22
+ 0.231154 2 0 ack 40 ------- 0 5.0 0.0 7 22
- 0.231154 2 0 ack 40 ------- 0 5.0 0.0 7 22
r 0.231277 3 2 ack 40 ------- 0 5.0 0.0 8 23
+ 0.231277 2 0 ack 40 ------- 0 5.0 0.0 8 23
- 0.231277 2 0 ack 40 ------- 0 5.0 0.0 8 23
r 0.2314 3 2 ack 40 ------- 0 5.0 0.0 9 24
+ 0.2314 2 0 ack 40 ------- 0 5.0 0.0 9 24
- 0.2314 2 0 ack 40 ------- 0 5.0 0.0 9 24
r 0.231523 3 2 ack 40 ------- 0 5.0 0.0 10 25
+ 0.231523 2 0 ack 40 ------- 0 5.0 0.0 10 25
- 0.231523 2 0 ack 40 ------- 0 5.0 0.0 10 25
r 0.231646 3 2 ack 40 ------- 0 5.0 0.0 11 26
+ 0.231646 2 0 ack 40 ------- 0 5.0 0.0 11 26
- 0.231646 2 0 ack 40 ------- 0 5.0 0.0 11 26
r 0.23177 3 2 ack 40 ------- 0 5.0 0.0 12 27
+ 0.23177 2 0 ack 40 ------- 0 5.0 0.0 12 27
- 0.23177 2 0 ack 40 ------- 0 5.0 0.0 12 27
r 0.231893 3 2 ack 40 ------- 0 5.0 0.0 13 28
+ 0.231893 2 0 ack 40 ------- 0 5.0 0.0 13 28
- 0.231893 2 0 ack 40 ------- 0 5.0 0.0 13 28
r 0.232016 3 2 ack 40 ------- 0 5.0 0.0 14 29
+ 0.232016 2 0 ack 40 ------- 0 5.0 0.0 14 29
- 0.232016 2 0 ack 40 ------- 0 5.0 0.0 14 29
r 0.241157 2 0 ack 40 ------- 0 5.0 0.0 7 22
+ 0.241157 0 2 tcp 1540 ------- 0 0.0 5.0 15 30
- 0.241157 0 2 tcp 1540 ------- 0 0.0 5.0 15 30
+ 0.241157 0 2 tcp 1540 ------- 0 0.0 5.0 16 31
r 0.24128 2 0 ack 40 ------- 0 5.0 0.0 8 23
+ 0.24128 0 2 tcp 1540 ------- 0 0.0 5.0 17 32
+ 0.24128 0 2 tcp 1540 ------- 0 0.0 5.0 18 33
- 0.24128 0 2 tcp 1540 ------- 0 0.0 5.0 16 31
r 0.241403 2 0 ack 40 ------- 0 5.0 0.0 9 24
+ 0.241403 0 2 tcp 1540 ------- 0 0.0 5.0 19 34
+ 0.241403 0 2 tcp 1540 ------- 0 0.0 5.0 20 35
- 0.241403 0 2 tcp 1540 ------- 0 0.0 5.0 17 32
r 0.241526 2 0 ack 40 ------- 0 5.0 0.0 10 25
+ 0.241526 0 2 tcp 1540 ------- 0 0.0 5.0 21 36
+ 0.241526 0 2 tcp 1540 ------- 0 0.0 5.0 22 37
- 0.241526 0 2 tcp 1540 ------- 0 0.0 5.0 18 33
r 0.24165 2 0 ack 40 ------- 0 5.0 0.0 11 26
+ 0.24165 0 2 tcp 1540 ------- 0 0.0 5.0 23 38
+ 0.24165 0 2 tcp 1540 ------- 0 0.0 5.0 24 39
- 0.24165 0 2 tcp 1540 ------- 0 0.0 5.0 19 34
r 0.241773 2 0 ack 40 ------- 0 5.0 0.0 12 27
+ 0.241773 0 2 tcp 1540 ------- 0 0.0 5.0 25 40
+ 0.241773 0 2 tcp 1540 ------- 0 0.0 5.0 26 41
- 0.241773 0 2 tcp 1540 ------- 0 0.0 5.0 20 35
r 0.241896 2 0 ack 40 ------- 0 5.0 0.0 13 28
+ 0.241896 0 2 tcp 1540 ------- 0 0.0 5.0 27 42
+ 0.241896 0 2 tcp 1540 ------- 0 0.0 5.0 28 43
- 0.241896 0 2 tcp 1540 ------- 0 0.0 5.0 21 36
r 0.242019 2 0 ack 40 ------- 0 5.0 0.0 14 29
+ 0.242019 0 2 tcp 1540 ------- 0 0.0 5.0 29 44
+ 0.242019 0 2 tcp 1540 ------- 0 0.0 5.0 30 45
- 0.242019 0 2 tcp 1540 ------- 0 0.0 5.0 22 37
- 0.242142 0 2 tcp 1540 ------- 0 0.0 5.0 23 38
- 0.242266 0 2 tcp 1540 ------- 0 0.0 5.0 24 39
- 0.242389 0 2 tcp 1540 ------- 0 0.0 5.0 25 40
- 0.242512 0 2 tcp 1540 ------- 0 0.0 5.0 26 41
- 0.242635 0 2 tcp 1540 ------- 0 0.0 5.0 27 42
- 0.242758 0 2 tcp 1540 ------- 0 0.0 5.0 28 43
- 0.242882 0 2 tcp 1540 ------- 0 0.0 5.0 29 44
- 0.243005 0 2 tcp 1540 ------- 0 0.0 5.0 30 45
r 0.25128 0 2 tcp 1540 ------- 0 0.0 5.0 15 30
+ 0.25128 2 3 tcp 1540 ------- 0 0.0 5.0 15 30
- 0.25128 2 3 tcp 1540 ------- 0 0.0 5.0 15 30
r 0.251403 0 2 tcp 1540 ------- 0 0.0 5.0 16 31
+ 0.251403 2 3 tcp 1540 ------- 0 0.0 5.0 16 31
- 0.251403 2 3 tcp 1540 ------- 0 0.0 5.0 16 31
r 0.251526 0 2 tcp 1540 ------- 0 0.0 5.0 17 32
+ 0.251526 2 3 tcp 1540 ------- 0 0.0 5.0 17 32
- 0.251526 2 3 tcp 1540 ------- 0 0.0 5.0 17 32
r 0.25165 0 2 tcp 1540 ------- 0 0.0 5.0 18 33
+ 0.25165 2 3 tcp 1540 ------- 0 0.0 5.0 18 33
- 0.25165 2 3 tcp 1540 ------- 0 0.0 5.0 18 33
r 0.251773 0 2 tcp 1540 ------- 0 0.0 5.0 19 34
+ 0.251773 2 3 tcp 1540 ------- 0 0.0 5.0 19 34
- 0.251773 2 3 tcp 1540 ------- 0 0.0 5.0 19 34
r 0.251896 0 2 tcp 1540 ------- 0 0.0 5.0 20 35
+ 0.251896 2 3 tcp 1540 ------- 0 0.0 5.0 20 35
- 0.251896 2 3 tcp 1540 ------- 0 0.0 5.0 20 35
r 0.252019 0 2 tcp 1540 ------- 0 0.0 5.0 21 36
+ 0.252019 2 3 tcp 1540 ------- 0 0.0 5.0 21 36
- 0.252019 2 3 tcp 1540 ------- 0 0.0 5.0 21 36
r 0.252142 0 2 tcp 1540 ------- 0 0.0 5.0 22 37
+ 0.252142 2 3 tcp 1540 ------- 0 0.0 5.0 22 37
- 0.252142 2 3 tcp 1540 ------- 0 0.0 5.0 22 37
r 0.252266 0 2 tcp 1540 ------- 0 0.0 5.0 23 38
+ 0.252266 2 3 tcp 1540 ------- 0 0.0 5.0 23 38
- 0.252266 2 3 tcp 1540 ------- 0 0.0 5.0 23 38
r 0.252389 0 2 tcp 1540 ------- 0 0.0 5.0 24 39
+ 0.252389 2 3 tcp 1540 ------- 0 0.0 5.0 24 39
- 0.252389 2 3 tcp 1540 ------- 0 0.0 5.0 24 39
r 0.252512 0 2 tcp 1540 ------- 0 0.0 5.0 25 40
+ 0.252512 2 3 tcp 1540 ------- 0 0.0 5.0 25 40
- 0.252512 2 3 tcp 1540 ------- 0 0.0 5.0 25 40
r 0.252635 0 2 tcp 1540 ------- 0 0.0 5.0 26 41
+ 0.252635 2 3 tcp 1540 ------- 0 0.0 5.0 26 41
- 0.252635 2 3 tcp 1540 ------- 0 0.0 5.0 26 41
r 0.252758 0 2 tcp 1540 ------- 0 0.0 5.0 27 42
+ 0.252758 2 3 tcp 1540 ------- 0 0.0 5.0 27 42
- 0.252758 2 3 tcp 1540 ------- 0 0.0 5.0 27 42
r 0.252882 0 2 tcp 1540 ------- 0 0.0 5.0 28 43
+ 0.252882 2 3 tcp 1540 ------- 0 0.0 5.0 28 43
- 0.252882 2 3 tcp 1540 ------- 0 0.0 5.0 28 43
r 0.253005 0 2 tcp 1540 ------- 0 0.0 5.0 29 44
+ 0.253005 2 3 tcp 1540 ------- 0 0.0 5.0 29 44
- 0.253005 2 3 tcp 1540 ------- 0 0.0 5.0 29 44
r 0.253128 0 2 tcp 1540 ------- 0 0.0 5.0 30 45
+ 0.253128 2 3 tcp 1540 ------- 0 0.0 5.0 30 45
- 0.253128 2 3 tcp 1540 ------- 0 0.0 5.0 30 45
r 0.261403 2 3 tcp 1540 ------- 0 0.0 5.0 15 30
+ 0.261403 3 5 tcp 1540 ------- 0 0.0 5.0 15 30
- 0.261403 3 5 tcp 1540 ------- 0 0.0 5.0 15 30
r 0.261526 2 3 tcp 1540 ------- 0 0.0 5.0 16 31
+ 0.261526 3 5 tcp 1540 ------- 0 0.0 5.0 16 31
- 0.261526 3 5 tcp 1540 ------- 0 0.0 5.0 16 31
r 0.26165 2 3 tcp 1540 ------- 0 0.0 5.0 17 32
+ 0.26165 3 5 tcp 1540 ------- 0 0.0 5.0 17 32
- 0.26165 3 5 tcp 1540 ------- 0 0.0 5.0 17 32
r 0.261773 2 3 tcp 1540 ------- 0 0.0 5.0 18 33
+ 0.261773 3 5 tcp 1540 ------- 0 0.0 5.0 18 33
- 0.261773 3 5 tcp 1540 ------- 0 0.0 5.0 18 33
r 0.261896 2 3 tcp 1540 ------- 0 0.0 5.0 19 34
+ 0.261896 3 5 tcp 1540 ------- 0 0.0 5.0 19 34
- 0.261896 3 5 tcp 1540 ------- 0 0.0 5.0 19 34
r 0.262019 2 3 tcp 1540 ------- 0 0.0 5.0 20 35
+ 0.262019 3 5 tcp 1540 ------- 0 0.0 5.0 20 35
- 0.262019 3 5 tcp 1540 ------- 0 0.0 5.0 20 35
r 0.262142 2 3 tcp 1540 ------- 0 0.0 5.0 21 36
+ 0.262142 3 5 tcp 1540 ------- 0 0.0 5.0 21 36
- 0.262142 3 5 tcp 1540 ------- 0 0.0 5.0 21 36
r 0.262266 2 3 tcp 1540 ------- 0 0.0 5.0 22 37
+ 0.262266 3 5 tcp 1540 ------- 0 0.0 5.0 22 37
- 0.262266 3 5 tcp 1540 ------- 0 0.0 5.0 22 37
r 0.262389 2 3 tcp 1540 ------- 0 0.0 5.0 23 38
+ 0.262389 3 5 tcp 1540 ------- 0 0.0 5.0 23 38
- 0.262389 3 5 tcp 1540 ------- 0 0.0 5.0 23 38
r 0.262512 2 3 tcp 1540 ------- 0 0.0 5.0 24 39
+ 0.262512 3 5 tcp 1540 ------- 0 0.0 5.0 24 39
- 0.262512 3 5 tcp 1540 ------- 0 0.0 5.0 24 39
r 0.262635 2 3 tcp 1540 ------- 0 0.0 5.0 25 40
+ 0.262635 3 5 tcp 1540 ------- 0 0.0 5.0 25 40
- 0.262635 3 5 tcp 1540 ------- 0 0.0 5.0 25 40
r 0.262758 2 3 tcp 1540 ------- 0 0.0 5.0 26 41
+ 0.262758 3 5 tcp 1540 ------- 0 0.0 5.0 26 41
- 0.262758 3 5 tcp 1540 ------- 0 0.0 5.0 26 41
r 0.262882 2 3 tcp 1540 ------- 0 0.0 5.0 27 42
+ 0.262882 3 5 tcp 1540 ------- 0 0.0 5.0 27 42
- 0.262882 3 5 tcp 1540 ------- 0 0.0 5.0 27 42
r 0.263005 2 3 tcp 1540 ------- 0 0.0 5.0 28 43
+ 0.263005 3 5 tcp 1540 ------- 0 0.0 5.0 28 43
- 0.263005 3 5 tcp 1540 ------- 0 0.0 5.0 28 43
r 0.263128 2 3 tcp 1540 ------- 0 0.0 5.0 29 44
+ 0.263128 3 5 tcp 1540 ------- 0 0.0 5.0 29 44
- 0.263128 3 5 tcp 1540 ------- 0 0.0 5.0 29 44
r 0.263251 2 3 tcp 1540 ------- 0 0.0 5.0 30 45
+ 0.263251 3 5 tcp 1540 ------- 0 0.0 5.0 30 45
- 0.263251 3 5 tcp 1540 ------- 0 0.0 5.0 30 45
r 0.271526 3 5 tcp 1540 ------- 0 0.0 5.0 15 30
+ 0.271526 5 3 ack 40 ------- 0 5.0 0.0 15 46
- 0.271526 5 3 ack 40 ------- 0 5.0 0.0 15 46
r 0.27165 3 5 tcp 1540 ------- 0 0.0 5.0 16 31
+ 0.27165 5 3 ack 40 ------- 0 5.0 0.0 16 47
- 0.27165 5 3 ack 40 ------- 0 5.0 0.0 16 47
r 0.271773 3 5 tcp 1540 ------- 0 0.0 5.0 17 32
+ 0.271773 5 3 ack 40 ------- 0 5.0 0.0 17 48
- 0.271773 5 3 ack 40 ------- 0 5.0 0.0 17 48
r 0.271896 3 5 tcp 1540 ------- 0 0.0 5.0 18 33
+ 0.271896 5 3 ack 40 ------- 0 5.0 0.0 18 49
- 0.271896 5 3 ack 40 ------- 0 5.0 0.0 18 49
r 0.272019 3 5 tcp 1540 ------- 0 0.0 5.0 19 34
+ 0.272019 5 3 ack 40 ------- 0 5.0 0.0 19 50
- 0.272019 5 3 ack 40 ------- 0 5.0 0.0 19 50
r 0.272142 3 5 tcp 1540 ------- 0 0.0 5.0 20 35
+ 0.272142 5 3 ack 40 ------- 0 5.0 0.0 20 51
- 0.272142 5 3 ack 40 ------- 0 5.0 0.0 20 51
r 0.272266 3 5 tcp 1540 ------- 0 0.0 5.0 21 36
+ 0.272266 5 3 ack 40 ------- 0 5.0 0.0 21 52
- 0.272266 5 3 ack 40 ------- 0 5.0 0.0 21 52
r 0.272389 3 5 tcp 1540 ------- 0 0.0 5.0 22 37
+ 0.272389 5 3 ack 40 ------- 0 5.0 0.0 22 53
- 0.272389 5 3 ack 40 ------- 0 5.0 0.0 22 53
r 0.272512 3 5 tcp 1540 ------- 0 0.0 5.0 23 38
+ 0.272512 5 3 ack 40 ------- 0 5.0 0.0 23 54
- 0.272512 5 3 ack 40 ------- 0 5.0 0.0 23 54
r 0.272635 3 5 tcp 1540 ------- 0 0.0 5.0 24 39
+ 0.272635 5 3 ack 40 ------- 0 5.0 0.0 24 55
- 0.272635 5 3 ack 40 ------- 0 5.0 0.0 24 55
r 0.272758 3 5 tcp 1540 ------- 0 0.0 5.0 25 40
+ 0.272758 5 3 ack 40 ------- 0 5.0 0.0 25 56
- 0.272758 5 3 ack 40 ------- 0 5.0 0.0 25 56
r 0.272882 3 5 tcp 1540 ------- 0 0.0 5.0 26 41
+ 0.272882 5 3 ack 40 ------- 0 5.0 0.0 26 57
- 0.272882 5 3 ack 40 ------- 0 5.0 0.0 26 57
r 0.273005 3 5 tcp 1540 ------- 0 0.0 5.0 27 42
+ 0.273005 5 3 ack 40 ------- 0 5.0 0.0 27 58
- 0.273005 5 3 ack 40 ------- 0 5.0 0.0 27 58
r 0.273128 3 5 tcp 1540 ------- 0 0.0 5.0 28 43
+ 0.273128 5 3 ack 40 ------- 0 5.0 0.0 28 59
- 0.273128 5 3 ack 40 ------- 0 5.0 0.0 28 59
r 0.273251 3 5 tcp 1540 ------- 0 0.0 5.0 29 44
+ 0.273251 5 3 ack 40 ------- 0 5.0 0.0 29 60
- 0.273251 5 3 ack 40 ------- 0 5.0 0.0 29 60
r 0.273374 3 5 tcp 1540 ------- 0 0.0 5.0 30 45
+ 0.273374 5 3 ack 40 ------- 0 5.0 0.0 30 61
- 0.273374 5 3 ack 40 ------- 0 5.0 0.0 30 61
r 0.28153 5 3 ack 40 ------- 0 5.0 0.0 15 46
+ 0.28153 3 2 ack 40 ------- 0 5.0 0.0 15 46
- 0.28153 3 2 ack 40 ------- 0 5.0 0.0 15 46
r 0.281653 5 3 ack 40 ------- 0 5.0 0.0 16 47
+ 0.281653 3 2 ack 40 ------- 0 5.0 0.0 16 47
- 0.281653 3 2 ack 40 ------- 0 5.0 0.0 16 47
r 0.281776 5 3 ack 40 ------- 0 5.0 0.0 17 48
+ 0.281776 3 2 ack 40 ------- 0 5.0 0.0 17 48
- 0.281776 3 2 ack 40 ------- 0 5.0 0.0 17 48
r 0.281899 5 3 ack 40 ------- 0 5.0 0.0 18 49
+ 0.281899 3 2 ack 40 ------- 0 5.0 0.0 18 49
- 0.281899 3 2 ack 40 ------- 0 5.0 0.0 18 49
r 0.282022 5 3 ack 40 ------- 0 5.0 0.0 19 50
+ 0.282022 3 2 ack 40 ------- 0 5.0 0.0 19 50
- 0.282022 3 2 ack 40 ------- 0 5.0 0.0 19 50
r 0.282146 5 3 ack 40 ------- 0 5.0 0.0 20 51
+ 0.282146 3 2 ack 40 ------- 0 5.0 0.0 20 51
- 0.282146 3 2 ack 40 ------- 0 5.0 0.0 20 51
r 0.282269 5 3 ack 40 ------- 0 5.0 0.0 21 52
+ 0.282269 3 2 ack 40 ------- 0 5.0 0.0 21 52
- 0.282269 3 2 ack 40 ------- 0 5.0 0.0 21 52
r 0.282392 5 3 ack 40 ------- 0 5.0 0.0 22 53
+ 0.282392 3 2 ack 40 ------- 0 5.0 0.0 22 53
- 0.282392 3 2 ack 40 ------- 0 5.0 0.0 22 53
r 0.282515 5 3 ack 40 ------- 0 5.0 0.0 23 54
+ 0.282515 3 2 ack 40 ------- 0 5.0 0.0 23 54
- 0.282515 3 2 ack 40 ------- 0 5.0 0.0 23 54
r 0.282638 5 3 ack 40 ------- 0 5.0 0.0 24 55
+ 0.282638 3 2 ack 40 ------- 0 5.0 0.0 24 55
- 0.282638 3 2 ack 40 ------- 0 5.0 0.0 24 55
r 0.282762 5 3 ack 40 ------- 0 5.0 0.0 25 56
+ 0.282762 3 2 ack 40 ------- 0 5.0 0.0 25 56
- 0.282762 3 2 ack 40 ------- 0 5.0 0.0 25 56
r 0.282885 5 3 ack 40 ------- 0 5.0 0.0 26 57
+ 0.282885 3 2 ack 40 ------- 0 5.0 0.0 26 57
- 0.282885 3 2 ack 40 ------- 0 5.0 0.0 26 57
r 0.283008 5 3 ack 40 ------- 0 5.0 0.0 27 58
+ 0.283008 3 2 ack 40 ------- 0 5.0 0.0 27 58
- 0.283008 3 2 ack 40 ------- 0 5.0 0.0 27 58
r 0.283131 5 3 ack 40 ------- 0 5.0 0.0 28 59
+ 0.283131 3 2 ack 40 ------- 0 5.0 0.0 28 59
- 0.283131 3 2 ack 40 ------- 0 5.0 0.0 28 59
r 0.283254 5 3 ack 40 ------- 0 5.0 0.0 29 60
+ 0.283254 3 2 ack 40 ------- 0 5.0 0.0 29 60
- 0.283254 3 2 ack 40 ------- 0 5.0 0.0 29 60
r 0.283378 5 3 ack 40 ------- 0 5.0 0.0 30 61
+ 0.283378 3 2 ack 40 ------- 0 5.0 0.0 30 61
- 0.283378 3 2 ack 40 ------- 0 5.0 0.0 30 61
r 0.291533 3 2 ack 40 ------- 0 5.0 0.0 15 46
+ 0.291533 2 0 ack 40 ------- 0 5.0 0.0 15 46
- 0.291533 2 0 ack 40 ------- 0 5.0 0.0 15 46
r 0.291656 3 2 ack 40 ------- 0 5.0 0.0 16 47
+ 0.291656 2 0 ack 40 ------- 0 5.0 0.0 16 47
- 0.291656 2 0 ack 40 ------- 0 5.0 0.0 16 47
r 0.291779 3 2 ack 40 ------- 0 5.0 0.0 17 48
+ 0.291779 2 0 ack 40 ------- 0 5.0 0.0 17 48
- 0.291779 2 0 ack 40 ------- 0 5.0 0.0 17 48
r 0.291902 3 2 ack 40 ------- 0 5.0 0.0 18 49
+ 0.291902 2 0 ack 40 ------- 0 5.0 0.0 18 49
- 0.291902 2 0 ack 40 ------- 0 5.0 0.0 18 49
r 0.292026 3 2 ack 40 ------- 0 5.0 0.0 19 50
+ 0.292026 2 0 ack 40 ------- 0 5.0 0.0 19 50
- 0.292026 2 0 ack 40 ------- 0 5.0 0.0 19 50
r 0.292149 3 2 ack 40 ------- 0 5.0 0.0 20 51
+ 0.292149 2 0 ack 40 ------- 0 5.0 0.0 20 51
- 0.292149 2 0 ack 40 ------- 0 5.0 0.0 20 51
r 0.292272 3 2 ack 40 ------- 0 5.0 0.0 21 52
+ 0.292272 2 0 ack 40 ------- 0 5.0 0.0 21 52
- 0.292272 2 0 ack 40 ------- 0 5.0 0.0 21 52
r 0.292395 3 2 ack 40 ------- 0 5.0 0.0 22 53
+ 0.292395 2 0 ack 40 ------- 0 5.0 0.0 22 53
- 0.292395 2 0 ack 40 ------- 0 5.0 0.0 22 53
r 0.292518 3 2 ack 40 ------- 0 5.0 0.0 23 54
+ 0.292518 2 0 ack 40 ------- 0 5.0 0.0 23 54
- 0.292518 2 0 ack 40 ------- 0 5.0 0.0 23 54
r 0.292642 3 2 ack 40 ------- 0 5.0 0.0 24 55
+ 0.292642 2 0 ack 40 ------- 0 5.0 0.0 24 55
- 0.292642 2 0 ack 40 ------- 0 5.0 0.0 24 55
r 0.292765 3 2 ack 40 ------- 0 5.0 0.0 25 56
+ 0.292765 2 0 ack 40 ------- 0 5.0 0.0 25 56
- 0.292765 2 0 ack 40 ------- 0 5.0 0.0 25 56
r 0.292888 3 2 ack 40 ------- 0 5.0 0.0 26 57
+ 0.292888 2 0 ack 40 ------- 0 5.0 0.0 26 57
- 0.292888 2 0 ack 40 ------- 0 5.0 0.0 26 57
r 0.293011 3 2 ack 40 ------- 0 5.0 0.0 27 58
+ 0.293011 2 0 ack 40 ------- 0 5.0 0.0 27 58
- 0.293011 2 0 ack 40 ------- 0 5.0 0.0 27 58
r 0.293134 3 2 ack 40 ------- 0 5.0 0.0 28 59
+ 0.293134 2 0 ack 40 ------- 0 5.0 0.0 28 59
- 0.293134 2 0 ack 40 ------- 0 5.0 0.0 28 59
r 0.293258 3 2 ack 40 ------- 0 5.0 0.0 29 60
+ 0.293258 2 0 ack 40 ------- 0 5.0 0.0 29 60
- 0.293258 2 0 ack 40 ------- 0 5.0 0.0 29 60
r 0.293381 3 2 ack 40 ------- 0 5.0 0.0 30 61
+ 0.293381 2 0 ack 40 ------- 0 5.0 0.0 30 61
- 0.293381 2 0 ack 40 ------- 0 5.0 0.0 30 61
r 0.301536 2 0 ack 40 ------- 0 5.0 0.0 15 46
+ 0.301536 0 2 tcp 1540 ------- 0 0.0 5.0 31 62
- 0.301536 0 2 tcp 1540 ------- 0 0.0 5.0 31 62
+ 0.301536 0 2 tcp 1540 ------- 0 0.0 5.0 32 63
r 0.301659 2 0 ack 40 ------- 0 5.0 0.0 16 47
+ 0.301659 0 2 tcp 1540 ------- 0 0.0 5.0 33 64
+ 0.301659 0 2 tcp 1540 ------- 0 0.0 5.0 34 65
- 0.301659 0 2 tcp 1540 ------- 0 0.0 5.0 32 63
r 0.301782 2 0 ack 40 ------- 0 5.0 0.0 17 48
+ 0.301782 0 2 tcp 1540 ------- 0 0.0 5.0 35 66
+ 0.301782 0 2 tcp 1540 ------- 0 0.0 5.0 36 67
- 0.301782 0 2 tcp 1540 ------- 0 0.0 5.0 33 64
r 0.301906 2 0 ack 40 ------- 0 5.0 0.0 18 49
+ 0.301906 0 2 tcp 1540 ------- 0 0.0 5.0 37 68
+ 0.301906 0 2 tcp 1540 ------- 0 0.0 5.0 38 69
- 0.301906 0 2 tcp 1540 ------- 0 0.0 5.0 34 65
r 0.302029 2 0 ack 40 ------- 0 5.0 0.0 19 50
+ 0.302029 0 2 tcp 1540 ------- 0 0.0 5.0 39 70
- 0.302029 0 2 tcp 1540 ------- 0 0.0 5.0 35 66
r 0.302152 2 0 ack 40 ------- 0 5.0 0.0 20 51
+ 0.302152 0 2 tcp 1540 ------- 0 0.0 5.0 40 71
- 0.302152 0 2 tcp 1540 ------- 0 0.0 5.0 36 67
r 0.302275 2 0 ack 40 ------- 0 5.0 0.0 21 52
+ 0.302275 0 2 tcp 1540 ------- 0 0.0 5.0 41 72
- 0.302275 0 2 tcp 1540 ------- 0 0.0 5.0 37 68
r 0.302398 2 0 ack 40 ------- 0 5.0 0.0 22 53
+ 0.302398 0 2 tcp 1540 ------- 0 0.0 5.0 42 73
- 0.302398 0 2 tcp 1540 ------- 0 0.0 5.0 38 69
r 0.302522 2 0 ack 40 ------- 0 5.0 0.0 23 54
+ 0.302522 0 2 tcp 1540 ------- 0 0.0 5.0 43 74
- 0.302522 0 2 tcp 1540 ------- 0 0.0 5.0 39 70
r 0.302645 2 0 ack 40 ------- 0 5.0 0.0 24 55
+ 0.302645 0 2 tcp 1540 ------- 0 0.0 5.0 44 75
- 0.302645 0 2 tcp 1540 ------- 0 0.0 5.0 40 71
r 0.302768 2 0 ack 40 ------- 0 5.0 0.0 25 56
+ 0.302768 0 2 tcp 1540 ------- 0 0.0 5.0 45 76
- 0.302768 0 2 tcp 1540 ------- 0 0.0 5.0 41 72
r 0.302891 2 0 ack 40 ------- 0 5.0 0.0 26 57
+ 0.302891 0 2 tcp 1540 ------- 0 0.0 5.0 46 77
- 0.302891 0 2 tcp 1540 ------- 0 0.0 5.0 42 73
r 0.303014 2 0 ack 40 ------- 0 5.0 0.0 27 58
+ 0.303014 0 2 tcp 1540 ------- 0 0.0 5.0 47 78
- 0.303014 0 2 tcp 1540 ------- 0 0.0 5.0 43 74
r 0.303138 2 0 ack 40 ------- 0 5.0 0.0 28 59
+ 0.303138 0 2 tcp 1540 ------- 0 0.0 5.0 48 79
- 0.303138 0 2 tcp 1540 ------- 0 0.0 5.0 44 75
r 0.303261 2 0 ack 40 ------- 0 5.0 0.0 29 60
+ 0.303261 0 2 tcp 1540 ------- 0 0.0 5.0 49 80
- 0.303261 0 2 tcp 1540 ------- 0 0.0 5.0 45 76
r 0.303384 2 0 ack 40 ------- 0 5.0 0.0 30 61
+ 0.303384 0 2 tcp 1540 ------- 0 0.0 5.0 50 81
- 0.303384 0 2 tcp 1540 ------- 0 0.0 5.0 46 77
- 0.303507 0 2 tcp 1540 ------- 0 0.0 5.0 47 78
- 0.30363 0 2 tcp 1540 ------- 0 0.0 5.0 48 79
- 0.303754 0 2 tcp 1540 ------- 0 0.0 5.0 49 80
- 0.303877 0 2 tcp 1540 ------- 0 0.0 5.0 50 81
r 0.311659 0 2 tcp 1540 ------- 0 0.0 5.0 31 62
+ 0.311659 2 3 tcp 1540 ------- 0 0.0 5.0 31 62
- 0.311659 2 3 tcp 1540 ------- 0 0.0 5.0 31 62
r 0.311782 0 2 tcp 1540 ------- 0 0.0 5.0 32 63
+ 0.311782 2 3 tcp 1540 ------- 0 0.0 5.0 32 63
- 0.311782 2 3 tcp 1540 ------- 0 0.0 5.0 32 63
r 0.311906 0 2 tcp 1540 ------- 0 0.0 5.0 33 64
+ 0.311906 2 3 tcp 1540 ------- 0 0.0 5.0 33 64
- 0.311906 2 3 tcp 1540 ------- 0 0.0 5.0 33 64
r 0.312029 0 2 tcp 1540 ------- 0 0.0 5.0 34 65
+ 0.312029 2 3 tcp 1540 ------- 0 0.0 5.0 34 65
- 0.312029 2 3 tcp 1540 ------- 0 0.0 5.0 34 65
r 0.312152 0 2 tcp 1540 ------- 0 0.0 5.0 35 66
+ 0.312152 2 3 tcp 1540 ------- 0 0.0 5.0 35 66
- 0.312152 2 3 tcp 1540 ------- 0 0.0 5.0 35 66
r 0.312275 0 2 tcp 1540 ------- 0 0.0 5.0 36 67
+ 0.312275 2 3 tcp 1540 ------- 0 0.0 5.0 36 67
- 0.312275 2 3 tcp 1540 ------- 0 0.0 5.0 36 67
r 0.312398 0 2 tcp 1540 ------- 0 0.0 5.0 37 68
+ 0.312398 2 3 tcp 1540 ------- 0 0.0 5.0 37 68
- 0.312398 2 3 tcp 1540 ------- 0 0.0 5.0 37 68
r 0.312522 0 2 tcp 1540 ------- 0 0.0 5.0 38 69
+ 0.312522 2 3 tcp 1540 ------- 0 0.0 5.0 38 69
- 0.312522 2 3 tcp 1540 ------- 0 0.0 5.0 38 69
r 0.312645 0 2 tcp 1540 ------- 0 0.0 5.0 39 70
+ 0.312645 2 3 tcp 1540 ------- 0 0.0 5.0 39 70
- 0.312645 2 3 tcp 1540 ------- 0 0.0 5.0 39 70
r 0.312768 0 2 tcp 1540 ------- 0 0.0 5.0 40 71
+ 0.312768 2 3 tcp 1540 ------- 0 0.0 5.0 40 71
- 0.312768 2 3 tcp 1540 ------- 0 0.0 5.0 40 71
r 0.312891 0 2 tcp 1540 ------- 0 0.0 5.0 41 72
+ 0.312891 2 3 tcp 1540 ------- 0 0.0 5.0 41 72
- 0.312891 2 3 tcp 1540 ------- 0 0.0 5.0 41 72
r 0.313014 0 2 tcp 1540 ------- 0 0.0 5.0 42 73
+ 0.313014 2 3 tcp 1540 ------- 0 0.0 5.0 42 73
- 0.313014 2 3 tcp 1540 ------- 0 0.0 5.0 42 73
r 0.313138 0 2 tcp 1540 ------- 0 0.0 5.0 43 74
+ 0.313138 2 3 tcp 1540 ------- 0 0.0 5.0 43 74
- 0.313138 2 3 tcp 1540 ------- 0 0.0 5.0 43 74
r 0.313261 0 2 tcp 1540 ------- 0 0.0 5.0 44 75
+ 0.313261 2 3 tcp 1540 ------- 0 0.0 5.0 44 75
- 0.313261 2 3 tcp 1540 ------- 0 0.0 5.0 44 75
r 0.313384 0 2 tcp 1540 ------- 0 0.0 5.0 45 76
+ 0.313384 2 3 tcp 1540 ------- 0 0.0 5.0 45 76
- 0.313384 2 3 tcp 1540 ------- 0 0.0 5.0 45 76
r 0.313507 0 2 tcp 1540 ------- 0 0.0 5.0 46 77