V -t * -v 1.0a5 -a 0
A -t * -n 1 -p 0 -o 0x7fffffff -c 30 -a 1
A -t * -h 1 -m 1073741823 -s 0
n -t * -a 4 -s 4 -S UP -v circle -c black -i black
n -t * -a 0 -s 0 -S UP -v circle -c black -i black
n -t * -a 5 -s 5 -S UP -v circle -c black -i black
n -t * -a 1 -s 1 -S UP -v circle -c black -i black
n -t * -a 2 -s 2 -S UP -v circle -c black -i black
n -t * -a 3 -s 3 -S UP -v circle -c black -i black
l -t * -s 0 -d 2 -S UP -r 100000000 -D 0.01 -c black -o right-down
l -t * -s 1 -d 2 -S UP -r 100000000 -D 0.01 -c black -o right-up
l -t * -s 2 -d 3 -S UP -r 100000000 -D 0.01 -c black -o right
l -t * -s 3 -d 4 -S UP -r 100000000 -D 0.01 -c black -o right-up
l -t * -s 3 -d 5 -S UP -r 100000000 -D 0.01 -c black -o right-down
+ -t 0 -s 0 -d 2 -p tcp -e 40 -c 0 -i 0 -a 0 -x {0.0 5.0 0 ------- null}
- -t 0 -s 0 -d 2 -p tcp -e 40 -c 0 -i 0 -a 0 -x {0.0 5.0 0 ------- null}
h -t 0 -s 0 -d 2 -p tcp -e 40 -c 0 -i 0 -a 0 -x {0.0 5.0 -1 ------- null}
r -t 0.0100032 -s 0 -d 2 -p tcp -e 40 -c 0 -i 0 -a 0 -x {0.0 5.0 0 ------- null}
+ -t 0.0100032 -s 2 -d 3 -p tcp -e 40 -c 0 -i 0 -a 0 -x {0.0 5.0 0 ------- null}
- -t 0.0100032 -s 2 -d 3 -p tcp -e 40 -c 0 -i 0 -a 0 -x {0.0 5.0 0 ------- null}
h -t 0.0100032 -s 2 -d 3 -p tcp -e 40 -c 0 -i 0 -a 0 -x {0.0 5.0 -1 ------- null}
r -t 0.0200064 -s 2 -d 3 -p tcp -e 40 -c 0 -i 0 -a 0 -x {0.0 5.0 0 ------- null}
+ -t 0.0200064 -s 3 -d 5 -p tcp -e 40 -c 0 -i 0 -a 0 -x {0.0 5.0 0 ------- null}
- -t 0.0200064 -s 3 -d 5 -p tcp -e 40 -c 0 -i 0 -a 0 -x {0.0 5.0 0 ------- null}
h -t 0.0200064 -s 3 -d 5 -p tcp -e 40 -c 0 -i 0 -a 0 -x {0.0 5.0 -1 ------- null}
r -t 0.0300096 -s 3 -d 5 -p tcp -e 40 -c 0 -i 0 -a 0 -x {0.0 5.0 0 ------- null}
+ -t 0.0300096 -s 5 -d 3 -p ack -e 40 -c 0 -i 1 -a 0 -x {5.0 0.0 0 ------- null}
- -t 0.0300096 -s 5 -d 3 -p ack -e 40 -c 0 -i 1 -a 0 -x {5.0 0.0 0 ------- null}
h -t 0.0300096 -s 5 -d 3 -p ack -e 40 -c 0 -i 1 -a 0 -x {5.0 0.0 -1 ------- null}
r -t 0.0400128 -s 5 -d 3 -p ack -e 40 -c 0 -i 1 -a 0 -x {5.0 0.0 0 ------- null}
+ -t 0.0400128 -s 3 -d 2 -p ack -e 40 -c 0 -i 1 -a 0 -x {5.0 0.0 0 ------- null}
- -t 0.0400128 -s 3 -d 2 -p ack -e 40 -c 0 -i 1 -a 0 -x {5.0 0.0 0 ------- null}
h -t 0.0400128 -s 3 -d 2 -p ack -e 40 -c 0 -i 1 -a 0 -x {5.0 0.0 -1 ------- null}
r -t 0.050016 -s 3 -d 2 -p ack -e 40 -c 0 -i 1 -a 0 -x {5.0 0.0 0 ------- null}
+ -t 0.050016 -s 2 -d 0 -p ack -e 40 -c 0 -i 1 -a 0 -x {5.0 0.0 0 ------- null}
- -t 0.050016 -s 2 -d 0 -p ack -e 40 -c 0 -i 1 -a 0 -x {5.0 0.0 0 ------- null}
h -t 0.050016 -s 2 -d 0 -p ack -e 40 -c 0 -i 1 -a 0 -x {5.0 0.0 -1 ------- null}
r -t 0.0600192 -s 2 -d 0 -p ack -e 40 -c 0 -i 1 -a 0 -x {5.0 0.0 0 ------- null}
+ -t 0.0600192 -s 0 -d 2 -p tcp -e 1540 -c 0 -i 2 -a 0 -x {0.0 5.0 1 ------- null}
- -t 0.0600192 -s 0 -d 2 -p tcp -e 1540 -c 0 -i 2 -a 0 -x {0.0 5.0 1 ------- null}
h -t 0.0600192 -s 0 -d 2 -p tcp -e 1540 -c 0 -i 2 -a 0 -x {0.0 5.0 -1 ------- null}
+ -t 0.0600192 -s 0 -d 2 -p tcp -e 1540 -c 0 -i 3 -a 0 -x {0.0 5.0 2 ------- null}
- -t 0.0601424 -s 0 -d 2 -p tcp -e 1540 -c 0 -i 3 -a 0 -x {0.0 5.0 2 ------- null}
h -t 0.0601424 -s 0 -d 2 -p tcp -e 1540 -c 0 -i 3 -a 0 -x {0.0 5.0 -1 ------- null}
r -t 0.0701424 -s 0 -d 2 -p tcp -e 1540 -c 0 -i 2 -a 0 -x {0.0 5.0 1 ------- null}
+ -t 0.0701424 -s 2 -d 3 -p tcp -e 1540 -c 0 -i 2 -a 0 -x {0.0 5.0 1 ------- null}
- -t 0.0701424 -s 2 -d 3 -p tcp -e 1540 -c 0 -i 2 -a 0 -x {0.0 5.0 1 ------- null}
h -t 0.0701424 -s 2 -d 3 -p tcp -e 1540 -c 0 -i 2 -a 0 -x {0.0 5.0 -1 ------- null}
r -t 0.0702656 -s 0 -d 2 -p tcp -e 1540 -c 0 -i 3 -a 0 -x {0.0 5.0 2 ------- null}
+ -t 0.0702656 -s 2 -d 3 -p tcp -e 1540 -c 0 -i 3 -a 0 -x {0.0 5.0 2 ------- null}
- -t 0.0702656 -s 2 -d 3 -p tcp -e 1540 -c 0 -i 3 -a 0 -x {0.0 5.0 2 ------- null}
h -t 0.0702656 -s 2 -d 3 -p tcp -e 1540 -c 0 -i 3 -a 0 -x {0.0 5.0 -1 ------- null}
r -t 0.0802656 -s 2 -d 3 -p tcp -e 1540 -c 0 -i 2 -a 0 -x {0.0 5.0 1 ------- null}
+ -t 0.0802656 -s 3 -d 5 -p tcp -e 1540 -c 0 -i 2 -a 0 -x {0.0 5.0 1 ------- null}
- -t 0.0802656 -s 3 -d 5 -p tcp -e 1540 -c 0 -i 2 -a 0 -x {0.0 5.0 1 ------- null}
h -t 0.0802656 -s 3 -d 5 -p tcp -e 1540 -c 0 -i 2 -a 0 -x {0.0 5.0 -1 ------- null}
r -t 0.0803888 -s 2 -d 3 -p tcp -e 1540 -c 0 -i 3 -a 0 -x {0.0 5.0 2 ------- null}
+ -t 0.0803888 -s 3 -d 5 -p tcp -e 1540 -c 0 -i 3 -a 0 -x {0.0 5.0 2 ------- null}
- -t 0.0803888 -s 3 -d 5 -p tcp -e 1540 -c 0 -i 3 -a 0 -x {0.0 5.0 2 ------- null}
h -t 0.0803888 -s 3 -d 5 -p tcp -e 1540 -c 0 -i 3 -a 0 -x {0.0 5.0 -1 ------- null}
r -t 0.0903888 -s 3 -d 5 -p tcp -e 1540 -c 0 -i 2 -a 0 -x {0.0 5.0 1 ------- null}
+ -t 0.0903888 -s 5 -d 3 -p ack -e 40 -c 0 -i 4 -a 0 -x {5.0 0.0 1 ------- null}
- -t 0.0903888 -s 5 -d 3 -p ack -e 40 -c 0 -i 4 -a 0 -x {5.0 0.0 1 ------- null}
h -t 0.0903888 -s 5 -d 3 -p ack -e 40 -c 0 -i 4 -a 0 -x {5.0 0.0 -1 ------- null}
r -t 0.090512 -s 3 -d 5 -p tcp -e 1540 -c 0 -i 3 -a 0 -x {0.0 5.0 2 ------- null}
+ -t 0.090512 -s 5 -d 3 -p ack -e 40 -c 0 -i 5 -a 0 -x {5.0 0.0 2 ------- null}
- -t 0.090512 -s 5 -d 3 -p ack -e 40 -c 0 -i 5 -a 0 -x {5.0 0.0 2 ------- null}
h -t 0.090512 -s 5 -d 3 -p ack -e 40 -c 0 -i 5 -a 0 -x {5.0 0.0 -1 ------- null}
r -t 0.100392 -s 5 -d 3 -p ack -e 40 -c 0 -i 4 -a 0 -x {5.0 0.0 1 ------- null}
+ -t 0.100392 -s 3 -d 2 -p ack -e 40 -c 0 -i 4 -a 0 -x {5.0 0.0 1 ------- null}
- -t 0.100392 -s 3 -d 2 -p ack -e 40 -c 0 -i 4 -a 0 -x {5.0 0.0 1 ------- null}
h -t 0.100392 -s 3 -d 2 -p ack -e 40 -c 0 -i 4 -a 0 -x {5.0 0.0 -1 ------- null}
r -t 0.1005152 -s 5 -d 3 -p ack -e 40 -c 0 -i 5 -a 0 -x {5.0 0.0 2 ------- null}
+ -t 0.1005152 -s 3 -d 2 -p ack -e 40 -c 0 -i 5 -a 0 -x {5.0 0.0 2 ------- null}
- -t 0.1005152 -s 3 -d 2 -p ack -e 40 -c 0 -i 5 -a 0 -x {5.0 0.0 2 ------- null}
h -t 0.1005152 -s 3 -d 2 -p ack -e 40 -c 0 -i 5 -a 0 -x {5.0 0.0 -1 ------- null}
r -t 0.1103952 -s 3 -d 2 -p ack -e 40 -c 0 -i 4 -a 0 -x {5.0 0.0 1 ------- null}
+ -t 0.1103952 -s 2 -d 0 -p ack -e 40 -c 0 -i 4 -a 0 -x {5.0 0.0 1 ------- null}
- -t 0.1103952 -s 2 -d 0 -p ack -e 40 -c 0 -i 4 -a 0 -x {5.0 0.0 1 ------- null}
h -t 0.1103952 -s 2 -d 0 -p ack -e 40 -c 0 -i 4 -a 0 -x {5.0 0.0 -1 ------- null}
r -t 0.1105184 -s 3 -d 2 -p ack -e 40 -c 0 -i 5 -a 0 -x {5.0 0.0 2 ------- null}
+ -t 0.1105184 -s 2 -d 0 -p ack -e 40 -c 0 -i 5 -a 0 -x {5.0 0.0 2 ------- null}
- -t 0.1105184 -s 2 -d 0 -p ack -e 40 -c 0 -i 5 -a 0 -x {5.0 0.0 2 ------- null}
h -t 0.1105184 -s 2 -d 0 -p ack -e 40 -c 0 -i 5 -a 0 -x {5.0 0.0 -1 ------- null}
r -t 0.1203984 -s 2 -d 0 -p ack -e 40 -c 0 -i 4 -a 0 -x {5.0 0.0 1 ------- null}
+ -t 0.1203984 -s 0 -d 2 -p tcp -e 1540 -c 0 -i 6 -a 0 -x {0.0 5.0 3 ------- null}
- -t 0.1203984 -s 0 -d 2 -p tcp -e 1540 -c 0 -i 6 -a 0 -x {0.0 5.0 3 ------- null}
h -t 0.1203984 -s 0 -d 2 -p tcp -e 1540 -c 0 -i 6 -a 0 -x {0.0 5.0 -1 ------- null}
+ -t 0.1203984 -s 0 -d 2 -p tcp -e 1540 -c 0 -i 7 -a 0 -x {0.0 5.0 4 ------- null}
r -t 0.1205216 -s 2 -d 0 -p ack -e 40 -c 0 -i 5 -a 0 -x {5.0 0.0 2 ------- null}
+ -t 0.1205216 -s 0 -d 2 -p tcp -e 1540 -c 0 -i 8 -a 0 -x {0.0 5.0 5 ------- null}
+ -t 0.1205216 -s 0 -d 2 -p tcp -e 1540 -c 0 -i 9 -a 0 -x {0.0 5.0 6 ------- null}
- -t 0.1205216 -s 0 -d 2 -p tcp -e 1540 -c 0 -i 7 -a 0 -x {0.0 5.0 4 ------- null}
h -t 0.1205216 -s 0 -d 2 -p tcp -e 1540 -c 0 -i 7 -a 0 -x {0.0 5.0 -1 ------- null}
- -t 0.1206448 -s 0 -d 2 -p tcp -e 1540 -c 0 -i 8 -a 0 -x {0.0 5.0 5 ------- null}
h -t 0.1206448 -s 0 -d 2 -p tcp -e 1540 -c 0 -i 8 -a 0 -x {0.0 5.0 -1 ------- null}
- -t 0.120768 -s 0 -d 2 -p tcp -e 1540 -c 0 -i 9 -a 0 -x {0.0 5.0 6 ------- null}
h -t 0.120768 -s 0 -d 2 -p tcp -e 1540 -c 0 -i 9 -a 0 -x {0.0 5.0 -1 ------- null}
r -t 0.1305216 -s 0 -d 2 -p tcp -e 1540 -c 0 -i 6 -a 0 -x {0.0 5.0 3 ------- null}
+ -t 0.1305216 -s 2 -d 3 -p tcp -e 1540 -c 0 -i 6 -a 0 -x {0.0 5.0 3 ------- null}
- -t 0.1305216 -s 2 -d 3 -p tcp -e 1540 -c 0 -i 6 -a 0 -x {0.0 5.0 3 ------- null}
h -t 0.1305216 -s 2 -d 3 -p tcp -e 1540 -c 0 -i 6 -a 0 -x {0.0 5.0 -1 ------- null}
r -t 0.1306448 -s 0 -d 2 -p tcp -e 1540 -c 0 -i 7 -a 0 -x {0.0 5.0 4 ------- null}
+ -t 0.1306448 -s 2 -d 3 -p tcp -e 1540 -c 0 -i 7 -a 0 -x {0.0 5.0 4 ------- null}
- -t 0.1306448 -s 2 -d 3 -p tcp -e 1540 -c 0 -i 7 -a 0 -x {0.0 5.0 4 ------- null}
h -t 0.1306448 -s 2 -d 3 -p tcp -e 1540 -c 0 -i 7 -a 0 -x {0.0 5.0 -1 ------- null}
r -t 0.130768 -s 0 -d 2 -p tcp -e 1540 -c 0 -i 8 -a 0 -x {0.0 5.0 5 ------- null}
+ -t 0.130768 -s 2 -d 3 -p tcp -e 1540 -c 0 -i 8 -a 0 -x {0.0 5.0 5 ------- null}
- -t 0.130768 -s 2 -d 3 -p tcp -e 1540 -c 0 -i 8 -a 0 -x {0.0 5.0 5 ------- null}
h -t 0.130768 -s 2 -d 3 -p tcp -e 1540 -c 0 -i 8 -a 0 -x {0.0 5.0 -1 ------- null}
r -t 0.1308912 -s 0 -d 2 -p tcp -e 1540 -c 0 -i 9 -a 0 -x {0.0 5.0 6 ------- null}
+ -t 0.1308912 -s 2 -d 3 -p tcp -e 1540 -c 0 -i 9 -a 0 -x {0.0 5.0 6 ------- null}
- -t 0.1308912 -s 2 -d 3 -p tcp -e 1540 -c 0 -i 9 -a 0 -x {0.0 5.0 6 ------- null}
h -t 0.1308912 -s 2 -d 3 -p tcp -e 1540 -c 0 -i 9 -a 0 -x {0.0 5.0 -1 ------- null}
r -t 0.1406448 -s 2 -d 3 -p tcp -e 1540 -c 0 -i 6 -a 0 -x {0.0 5.0 3 ------- null}
+ -t 0.1406448 -s 3 -d 5 -p tcp -e 1540 -c 0 -i 6 -a 0 -x {0.0 5.0 3 ------- null}
- -t 0.1406448 -s 3 -d 5 -p tcp -e 1540 -c 0 -i 6 -a 0 -x {0.0 5.0 3 ------- null}
h -t 0.1406448 -s 3 -d 5 -p tcp -e 1540 -c 0 -i 6 -a 0 -x {0.0 5.0 -1 ------- null}
r -t 0.140768 -s 2 -d 3 -p tcp -e 1540 -c 0 -i 7 -a 0 -x {0.0 5.0 4 ------- null}
+ -t 0.140768 -s 3 -d 5 -p tcp -e 1540 -c 0 -i 7 -a 0 -x {0.0 5.0 4 ------- null}
- -t 0.140768 -s 3 -d 5 -p tcp -e 1540 -c 0 -i 7 -a 0 -x {0.0 5.0 4 ------- null}
h -t 0.140768 -s 3 -d 5 -p tcp -e 1540 -c 0 -i 7 -a 0 -x {0.0 5.0 -1 ------- null}
r -t 0.1408912 -s 2 -d 3 -p tcp -e 1540 -c 0 -i 8 -a 0 -x {0.0 5.0 5 ------- null}
+ -t 0.1408912 -s 3 -d 5 -p tcp -e 1540 -c 0 -i 8 -a 0 -x {0.0 5.0 5 ------- null}
- -t 0.1408912 -s 3 -d 5 -p tcp -e 1540 -c 0 -i 8 -a 0 -x {0.0 5.0 5 ------- null}
h -t 0.1408912 -s 3 -d 5 -p tcp -e 1540 -c 0 -i 8 -a 0 -x {0.0 5.0 -1 ------- null}
r -t 0.1410144 -s 2 -d 3 -p tcp -e 1540 -c 0 -i 9 -a 0 -x {0.0 5.0 6 ------- null}
+ -t 0.1410144 -s 3 -d 5 -p tcp -e 1540 -c 0 -i 9 -a 0 -x {0.0 5.0 6 ------- null}
- -t 0.1410144 -s 3 -d 5 -p tcp -e 1540 -c 0 -i 9 -a 0 -x {0.0 5.0 6 ------- null}
h -t 0.1410144 -s 3 -d 5 -p tcp -e 1540 -c 0 -i 9 -a 0 -x {0.0 5.0 -1 ------- null}
r -t 0.150768 -s 3 -d 5 -p tcp -e 1540 -c 0 -i 6 -a 0 -x {0.0 5.0 3 ------- null}
+ -t 0.150768 -s 5 -d 3 -p ack -e 40 -c 0 -i 10 -a 0 -x {5.0 0.0 3 ------- null}
- -t 0.150768 -s 5 -d 3 -p ack -e 40 -c 0 -i 10 -a 0 -x {5.0 0.0 3 ------- null}
h -t 0.150768 -s 5 -d 3 -p ack -e 40 -c 0 -i 10 -a 0 -x {5.0 0.0 -1 ------- null}
r -t 0.1508912 -s 3 -d 5 -p tcp -e 1540 -c 0 -i 7 -a 0 -x {0.0 5.0 4 ------- null}
+ -t 0.1508912 -s 5 -d 3 -p ack -e 40 -c 0 -i 11 -a 0 -x {5.0 0.0 4 ------- null}
- -t 0.1508912 -s 5 -d 3 -p ack -e 40 -c 0 -i 11 -a 0 -x {5.0 0.0 4 ------- null}
h -t 0.1508912 -s 5 -d 3 -p ack -e 40 -c 0 -i 11 -a 0 -x {5.0 0.0 -1 ------- null}
r -t 0.1510144 -s 3 -d 5 -p tcp -e 1540 -c 0 -i 8 -a 0 -x {0.0 5.0 5 ------- null}
+ -t 0.1510144 -s 5 -d 3 -p ack -e 40 -c 0 -i 12 -a 0 -x {5.0 0.0 5 ------- null}
- -t 0.1510144 -s 5 -d 3 -p ack -e 40 -c 0 -i 12 -a 0 -x {5.0 0.0 5 ------- null}
h -t 0.1510144 -s 5 -d 3 -p ack -e 40 -c 0 -i 12 -a 0 -x {5.0 0.0 -1 ------- null}
r -t 0.1511376 -s 3 -d 5 -p tcp -e 1540 -c 0 -i 9 -a 0 -x {0.0 5.0 6 ------- null}
+ -t 0.1511376 -s 5 -d 3 -p ack -e 40 -c 0 -i 13 -a 0 -x {5.0 0.0 6 ------- null}
- -t 0.1511376 -s 5 -d 3 -p ack -e 40 -c 0 -i 13 -a 0 -x {5.0 0.0 6 ------- null}
h -t 0.1511376 -s 5 -d 3 -p ack -e 40 -c 0 -i 13 -a 0 -x {5.0 0.0 -1 ------- null}
r -t 0.1607712 -s 5 -d 3 -p ack -e 40 -c 0 -i 10 -a 0 -x {5.0 0.0 3 ------- null}
+ -t 0.1607712 -s 3 -d 2 -p ack -e 40 -c 0 -i 10 -a 0 -x {5.0 0.0 3 ------- null}
- -t 0.1607712 -s 3 -d 2 -p ack -e 40 -c 0 -i 10 -a 0 -x {5.0 0.0 3 ------- null}
h -t 0.1607712 -s 3 -d 2 -p ack -e 40 -c 0 -i 10 -a 0 -x {5.0 0.0 -1 ------- null}
r -t 0.1608944 -s 5 -d 3 -p ack -e 40 -c 0 -i 11 -a 0 -x {5.0 0.0 4 ------- null}
+ -t 0.1608944 -s 3 -d 2 -p ack -e 40 -c 0 -i 11 -a 0 -x {5.0 0.0 4 ------- null}
- -t 0.1608944 -s 3 -d 2 -p ack -e 40 -c 0 -i 11 -a 0 -x {5.0 0.0 4 ------- null}
h -t 0.1608944 -s 3 -d 2 -p ack -e 40 -c 0 -i 11 -a 0 -x {5.0 0.0 -1 ------- null}
r -t 0.1610176 -s 5 -d 3 -p ack -e 40 -c 0 -i 12 -a 0 -x {5.0 0.0 5 ------- null}
+ -t 0.1610176 -s 3 -d 2 -p ack -e 40 -c 0 -i 12 -a 0 -x {5.0 0.0 5 ------- null}
- -t 0.1610176 -s 3 -d 2 -p ack -e 40 -c 0 -i 12 -a 0 -x {5.0 0.0 5 ------- null}
h -t 0.1610176 -s 3 -d 2 -p ack -e 40 -c 0 -i 12 -a 0 -x {5.0 0.0 -1 ------- null}
r -t 0.1611408 -s 5 -d 3 -p ack -e 40 -c 0 -i 13 -a 0 -x {5.0 0.0 6 ------- null}
+ -t 0.1611408 -s 3 -d 2 -p ack -e 40 -c 0 -i 13 -a 0 -x {5.0 0.0 6 ------- null}
- -t 0.1611408 -s 3 -d 2 -p ack -e 40 -c 0 -i 13 -a 0 -x {5.0 0.0 6 ------- null}
h -t 0.1611408 -s 3 -d 2 -p ack -e 40 -c 0 -i 13 -a 0 -x {5.0 0.0 -1 ------- null}
r -t 0.1707744 -s 3 -d 2 -p ack -e 40 -c 0 -i 10 -a 0 -x {5.0 0.0 3 ------- null}
+ -t 0.1707744 -s 2 -d 0 -p ack -e 40 -c 0 -i 10 -a 0 -x {5.0 0.0 3 ------- null}
- -t 0.1707744 -s 2 -d 0 -p ack -e 40 -c 0 -i 10 -a 0 -x {5.0 0.0 3 ------- null}
h -t 0.1707744 -s 2 -d 0 -p ack -e 40 -c 0 -i 10 -a 0 -x {5.0 0.0 -1 ------- null}
r -t 0.1708976 -s 3 -d 2 -p ack -e 40 -c 0 -i 11 -a 0 -x {5.0 0.0 4 ------- null}
+ -t 0.1708976 -s 2 -d 0 -p ack -e 40 -c 0 -i 11 -a 0 -x {5.0 0.0 4 ------- null}
- -t 0.1708976 -s 2 -d 0 -p ack -e 40 -c 0 -i 11 -a 0 -x {5.0 0.0 4 ------- null}
h -t 0.1708976 -s 2 -d 0 -p ack -e 40 -c 0 -i 11 -a 0 -x {5.0 0.0 -1 ------- null}
r -t 0.1710208 -s 3 -d 2 -p ack -e 40 -c 0 -i 12 -a 0 -x {5.0 0.0 5 ------- null}
+ -t 0.1710208 -s 2 -d 0 -p ack -e 40 -c 0 -i 12 -a 0 -x {5.0 0.0 5 ------- null}
- -t 0.1710208 -s 2 -d 0 -p ack -e 40 -c 0 -i 12 -a 0 -x {5.0 0.0 5 ------- null}
h -t 0.1710208 -s 2 -d 0 -p ack -e 40 -c 0 -i 12 -a 0 -x {5.0 0.0 -1 ------- null}
r -t 0.171144 -s 3 -d 2 -p ack -e 40 -c 0 -i 13 -a 0 -x {5.0 0.0 6 ------- null}
+ -t 0.171144 -s 2 -d 0 -p ack -e 40 -c 0 -i 13 -a 0 -x {5.0 0.0 6 ------- null}
- -t 0.171144 -s 2 -d 0 -p ack -e 40 -c 0 -i 13 -a 0 -x {5.0 0.0 6 ------- null}
h -t 0.171144 -s 2 -d 0 -p ack -e 40 -c 0 -i 13 -a 0 -x {5.0 0.0 -1 ------- null}
r -t 0.1807776 -s 2 -d 0 -p ack -e 40 -c 0 -i 10 -a 0 -x {5.0 0.0 3 ------- null}
+ -t 0.1807776 -s 0 -d 2 -p tcp -e 1540 -c 0 -i 14 -a 0 -x {0.0 5.0 7 ------- null}
- -t 0.1807776 -s 0 -d 2 -p tcp -e 1540 -c 0 -i 14 -a 0 -x {0.0 5.0 7 ------- null}
h -t 0.1807776 -s 0 -d 2 -p tcp -e 1540 -c 0 -i 14 -a 0 -x {0.0 5.0 -1 ------- null}
+ -t 0.1807776 -s 0 -d 2 -p tcp -e 1540 -c 0 -i 15 -a 0 -x {0.0 5.0 8 ------- null}
- -t 0.1809008 -s 0 -d 2 -p tcp -e 1540 -c 0 -i 15 -a 0 -x {0.0 5.0 8 ------- null}
h -t 0.1809008 -s 0 -d 2 -p tcp -e 1540 -c 0 -i 15 -a 0 -x {0.0 5.0 -1 ------- null}
r -t 0.1809008 -s 2 -d 0 -p ack -e 40 -c 0 -i 11 -a 0 -x {5.0 0.0 4 ------- null}
+ -t 0.1809008 -s 0 -d 2 -p tcp -e 1540 -c 0 -i 16 -a 0 -x {0.0 5.0 9 ------- null}
+ -t 0.1809008 -s 0 -d 2 -p tcp -e 1540 -c 0 -i 17 -a 0 -x {0.0 5.0 10 ------- null}
- -t 0.181024 -s 0 -d 2 -p tcp -e 1540 -c 0 -i 16 -a 0 -x {0.0 5.0 9 ------- null}
h -t 0.181024 -s 0 -d 2 -p tcp -e 1540 -c 0 -i 16 -a 0 -x {0.0 5.0 -1 ------- null}
r -t 0.181024 -s 2 -d 0 -p ack -e 40 -c 0 -i 12 -a 0 -x {5.0 0.0 5 ------- null}
+ -t 0.181024 -s 0 -d 2 -p tcp -e 1540 -c 0 -i 18 -a 0 -x {0.0 5.0 11 ------- null}
+ -t 0.181024 -s 0 -d 2 -p tcp -e 1540 -c 0 -i 19 -a 0 -x {0.0 5.0 12 ------- null}
- -t 0.1811472 -s 0 -d 2 -p tcp -e 1540 -c 0 -i 17 -a 0 -x {0.0 5.0 10 ------- null}
h -t 0.1811472 -s 0 -d 2 -p tcp -e 1540 -c 0 -i 17 -a 0 -x {0.0 5.0 -1 ------- null}
r -t 0.1811472 -s 2 -d 0 -p ack -e 40 -c 0 -i 13 -a 0 -x {5.0 0.0 6 ------- null}
+ -t 0.1811472 -s 0 -d 2 -p tcp -e 1540 -c 0 -i 20 -a 0 -x {0.0 5.0 13 ------- null}
+ -t 0.1811472 -s 0 -d 2 -p tcp -e 1540 -c 0 -i 21 -a 0 -x {0.0 5.0 14 ------- null}
- -t 0.1812704 -s 0 -d 2 -p tcp -e 1540 -c 0 -i 18 -a 0 -x {0.0 5.0 11 ------- null}
h -t 0.1812704 -s 0 -d 2 -p tcp -e 1540 -c 0 -i 18 -a 0 -x {0.0 5.0 -1 ------- null}
- -t 0.1813936 -s 0 -d 2 -p tcp -e 1540 -c 0 -i 19 -a 0 -x {0.0 5.0 12 ------- null}
h -t 0.1813936 -s 0 -d 2 -p tcp -e 1540 -c 0 -i 19 -a 0 -x {0.0 5.0 -1 ------- null}
- -t 0.1815168 -s 0 -d 2 -p tcp -e 1540 -c 0 -i 20 -a 0 -x {0.0 5.0 13 ------- null}
h -t 0.1815168 -s 0 -d 2 -p tcp -e 1540 -c 0 -i 20 -a 0 -x {0.0 5.0 -1 ------- null}
- -t 0.18164 -s 0 -d 2 -p tcp -e 1540 -c 0 -i 21 -a 0 -x {0.0 5.0 14 ------- null}
h -t 0.18164 -s 0 -d 2 -p tcp -e 1540 -c 0 -i 21 -a 0 -x {0.0 5.0 -1 ------- null}
r -t 0.1909008 -s 0 -d 2 -p tcp -e 1540 -c 0 -i 14 -a 0 -x {0.0 5.0 7 ------- null}
+ -t 0.1909008 -s 2 -d 3 -p tcp -e 1540 -c 0 -i 14 -a 0 -x {0.0 5.0 7 ------- null}
- -t 0.1909008 -s 2 -d 3 -p tcp -e 1540 -c 0 -i 14 -a 0 -x {0.0 5.0 7 ------- null}
h -t 0.1909008 -s 2 -d 3 -p tcp -e 1540 -c 0 -i 14 -a 0 -x {0.0 5.0 -1 ------- null}
r -t 0.191024 -s 0 -d 2 -p tcp -e 1540 -c 0 -i 15 -a 0 -x {0.0 5.0 8 ------- null}
+ -t 0.191024 -s 2 -d 3 -p tcp -e 1540 -c 0 -i 15 -a 0 -x {0.0 5.0 8 ------- null}
- -t 0.191024 -s 2 -d 3 -p tcp -e 1540 -c 0 -i 15 -a 0 -x {0.0 5.0 8 ------- null}
h -t 0.191024 -s 2 -d 3 -p tcp -e 1540 -c 0 -i 15 -a 0 -x {0.0 5.0 -1 ------- null}
r -t 0.1911472 -s 0 -d 2 -p tcp -e 1540 -c 0 -i 16 -a 0 -x {0.0 5.0 9 ------- null}
+ -t 0.1911472 -s 2 -d 3 -p tcp -e 1540 -c 0 -i 16 -a 0 -x {0.0 5.0 9 ------- null}
- -t 0.1911472 -s 2 -d 3 -p tcp -e 1540 -c 0 -i 16 -a 0 -x {0.0 5.0 9 ------- null}
h -t 0.1911472 -s 2 -d 3 -p tcp -e 1540 -c 0 -i 16 -a 0 -x {0.0 5.0 -1 ------- null}
r -t 0.1912704 -s 0 -d 2 -p tcp -e 1540 -c 0 -i 17 -a 0 -x {0.0 5.0 10 ------- null}
+ -t 0.1912704 -s 2 -d 3 -p tcp -e 1540 -c 0 -i 17 -a 0 -x {0.0 5.0 10 ------- null}
- -t 0.1912704 -s 2 -d 3 -p tcp -e 1540 -c 0 -i 17 -a 0 -x {0.0 5.0 10 ------- null}
h -t 0.1912704 -s 2 -d 3 -p tcp -e 1540 -c 0 -i 17 -a 0 -x {0.0 5.0 -1 ------- null}
r -t 0.1913936 -s 0 -d 2 -p tcp -e 1540 -c 0 -i 18 -a 0 -x {0.0 5.0 11 ------- null}
+ -t 0.1913936 -s 2 -d 3 -p tcp -e 1540 -c 0 -i 18 -a 0 -x {0.0 5.0 11 ------- null}
- -t 0.1913936 -s 2 -d 3 -p tcp -e 1540 -c 0 -i 18 -a 0 -x {0.0 5.0 11 ------- null}
h -t 0.1913936 -s 2 -d 3 -p tcp -e 1540 -c 0 -i 18 -a 0 -x {0.0 5.0 -1 ------- null}
r -t 0.1915168 -s 0 -d 2 -p tcp -e 1540 -c 0 -i 19 -a 0 -x {0.0 5.0 12 ------- null}
+ -t 0.1915168 -s 2 -d 3 -p tcp -e 1540 -c 0 -i 19 -a 0 -x {0.0 5.0 12 ------- null}
- -t 0.1915168 -s 2 -d 3 -p tcp -e 1540 -c 0 -i 19 -a 0 -x {0.0 5.0 12 ------- null}
h -t 0.1915168 -s 2 -d 3 -p tcp -e 1540 -c 0 -i 19 -a 0 -x {0.0 5.0 -1 ------- null}
r -t 0.19164 -s 0 -d 2 -p tcp -e 1540 -c 0 -i 20 -a 0 -x {0.0 5.0 13 ------- null}
+ -t 0.19164 -s 2 -d 3 -p tcp -e 1540 -c 0 -i 20 -a 0 -x {0.0 5.0 13 ------- null}
- -t 0.19164 -s 2 -d 3 -p tcp -e 1540 -c 0 -i 20 -a 0 -x {0.0 5.0 13 ------- null}
h -t 0.19164 -s 2 -d 3 -p tcp -e 1540 -c 0 -i 20 -a 0 -x {0.0 5.0 -1 ------- null}
r -t 0.1917632 -s 0 -d 2 -p tcp -e 1540 -c 0 -i 21 -a 0 -x {0.0 5.0 14 ------- null}
+ -t 0.1917632 -s 2 -d 3 -p tcp -e 1540 -c 0 -i 21 -a 0 -x {0.0 5.0 14 ------- null}
- -t 0.1917632 -s 2 -d 3 -p tcp -e 1540 -c 0 -i 21 -a 0 -x {0.0 5.0 14 ------- null}
h -t 0.1917632 -s 2 -d 3 -p tcp -e 1540 -c 0 -i 21 -a 0 -x {0.0 5.0 -1 ------- null}
r -t 0.201024 -s 2 -d 3 -p tcp -e 1540 -c 0 -i 14 -a 0 -x {0.0 5.0 7 ------- null}
+ -t 0.201024 -s 3 -d 5 -p tcp -e 1540 -c 0 -i 14 -a 0 -x {0.0 5.0 7 ------- null}
- -t 0.201024 -s 3 -d 5 -p tcp -e 1540 -c 0 -i 14 -a 0 -x {0.0 5.0 7 ------- null}
h -t 0.201024 -s 3 -d 5 -p tcp -e 1540 -c 0 -i 14 -a 0 -x {0.0 5.0 -1 ------- null}
r -t 0.2011472 -s 2 -d 3 -p tcp -e 1540 -c 0 -i 15 -a 0 -x {0.0 5.0 8 ------- null}
+ -t 0.2011472 -s 3 -d 5 -p tcp -e 1540 -c 0 -i 15 -a 0 -x {0.0 5.0 8 ------- null}
- -t 0.2011472 -s 3 -d 5 -p tcp -e 1540 -c 0 -i 15 -a 0 -x {0.0 5.0 8 ------- null}
h -t 0.2011472 -s 3 -d 5 -p tcp -e 1540 -c 0 -i 15 -a 0 -x {0.0 5.0 -1 ------- null}
r -t 0.2012704 -s 2 -d 3 -p tcp -e 1540 -c 0 -i 16 -a 0 -x {0.0 5.0 9 ------- null}
+ -t 0.2012704 -s 3 -d 5 -p tcp -e 1540 -c 0 -i 16 -a 0 -x {0.0 5.0 9 ------- null}
- -t 0.2012704 -s 3 -d 5 -p tcp -e 1540 -c 0 -i 16 -a 0 -x {0.0 5.0 9 ------- null}
h -t 0.2012704 -s 3 -d 5 -p tcp -e 1540 -c 0 -i 16 -a 0 -x {0.0 5.0 -1 ------- null}
r -t 0.2013936 -s 2 -d 3 -p tcp -e 1540 -c 0 -i 17 -a 0 -x {0.0 5.0 10 ------- null}
+ -t 0.2013936 -s 3 -d 5 -p tcp -e 1540 -c 0 -i 17 -a 0 -x {0.0 5.0 10 ------- null}
- -t 0.2013936 -s 3 -d 5 -p tcp -e 1540 -c 0 -i 17 -a 0 -x {0.0 5.0 10 ------- null}
h -t 0.2013936 -s 3 -d 5 -p tcp -e 1540 -c 0 -i 17 -a 0 -x {0.0 5.0 -1 ------- null}
r -t 0.2015168 -s 2 -d 3 -p tcp -e 1540 -c 0 -i 18 -a 0 -x {0.0 5.0 11 ------- null}
+ -t 0.2015168 -s 3 -d 5 -p tcp -e 1540 -c 0 -i 18 -a 0 -x {0.0 5.0 11 ------- null}
- -t 0.2015168 -s 3 -d 5 -p tcp -e 1540 -c 0 -i 18 -a 0 -x {0.0 5.0 11 ------- null}
h -t 0.2015168 -s 3 -d 5 -p tcp -e 1540 -c 0 -i 18 -a 0 -x {0.0 5.0 -1 ------- null}
r -t 0.20164 -s 2 -d 3 -p tcp -e 1540 -c 0 -i 19 -a 0 -x {0.0 5.0 12 ------- null}
+ -t 0.20164 -s 3 -d 5 -p tcp -e 1540 -c 0 -i 19 -a 0 -x {0.0 5.0 12 ------- null}
- -t 0.20164 -s 3 -d 5 -p tcp -e 1540 -c 0 -i 19 -a 0 -x {0.0 5.0 12 ------- null}
h -t 0.20164 -s 3 -d 5 -p tcp -e 1540 -c 0 -i 19 -a 0 -x {0.0 5.0 -1 ------- null}
r -t 0.2017632 -s 2 -d 3 -p tcp -e 1540 -c 0 -i 20 -a 0 -x {0.0 5.0 13 ------- null}
+ -t 0.2017632 -s 3 -d 5 -p tcp -e 1540 -c 0 -i 20 -a 0 -x {0.0 5.0 13 ------- null}
- -t 0.2017632 -s 3 -d 5 -p tcp -e 1540 -c 0 -i 20 -a 0 -x {0.0 5.0 13 ------- null}
h -t 0.2017632 -s 3 -d 5 -p tcp -e 1540 -c 0 -i 20 -a 0 -x {0.0 5.0 -1 ------- null}
r -t 0.2018864 -s 2 -d 3 -p tcp -e 1540 -c 0 -i 21 -a 0 -x {0.0 5.0 14 ------- null}
+ -t 0.2018864 -s 3 -d 5 -p tcp -e 1540 -c 0 -i 21 -a 0 -x {0.0 5.0 14 ------- null}
- -t 0.2018864 -s 3 -d 5 -p tcp -e 1540 -c 0 -i 21 -a 0 -x {0.0 5.0 14 ------- null}
h -t 0.2018864 -s 3 -d 5 -p tcp -e 1540 -c 0 -i 21 -a 0 -x {0.0 5.0 -1 ------- null}
r -t 0.2111472 -s 3 -d 5 -p tcp -e 1540 -c 0 -i 14 -a 0 -x {0.0 5.0 7 ------- null}
+ -t 0.2111472 -s 5 -d 3 -p ack -e 40 -c 0 -i 22 -a 0 -x {5.0 0.0 7 ------- null}
- -t 0.2111472 -s 5 -d 3 -p ack -e 40 -c 0 -i 22 -a 0 -x {5.0 0.0 7 ------- null}
h -t 0.2111472 -s 5 -d 3 -p ack -e 40 -c 0 -i 22 -a 0 -x {5.0 0.0 -1 ------- null}
r -t 0.2112704 -s 3 -d 5 -p tcp -e 1540 -c 0 -i 15 -a 0 -x {0.0 5.0 8 ------- null}
+ -t 0.2112704 -s 5 -d 3 -p ack -e 40 -c 0 -i 23 -a 0 -x {5.0 0.0 8 ------- null}
- -t 0.2112704 -s 5 -d 3 -p ack -e 40 -c 0 -i 23 -a 0 -x {5.0 0.0 8 ------- null}
h -t 0.2112704 -s 5 -d 3 -p ack -e 40 -c 0 -i 23 -a 0 -x {5.0 0.0 -1 ------- null}
r -t 0.2113936 -s 3 -d 5 -p tcp -e 1540 -c 0 -i 16 -a 0 -x {0.0 5.0 9 ------- null}
+ -t 0.2113936 -s 5 -d 3 -p ack -e 40 -c 0 -i 24 -a 0 -x {5.0 0.0 9 ------- null}
- -t 0.2113936 -s 5 -d 3 -p ack -e 40 -c 0 -i 24 -a 0 -x {5.0 0.0 9 ------- null}
h -t 0.2113936 -s 5 -d 3 -p ack -e 40 -c 0 -i 24 -a 0 -x {5.0 0.0 -1 ------- null}
r -t 0.2115168 -s 3 -d 5 -p tcp -e 1540 -c 0 -i 17 -a 0 -x {0.0 5.0 10 ------- null}
+ -t 0.2115168 -s 5 -d 3 -p ack -e 40 -c 0 -i 25 -a 0 -x {5.0 0.0 10 ------- null}
- -t 0.2115168 -s 5 -d 3 -p ack -e 40 -c 0 -i 25 -a 0 -x {5.0 0.0 10 ------- null}
h -t 0.2115168 -s 5 -d 3 -p ack -e 40 -c 0 -i 25 -a 0 -x {5.0 0.0 -1 ------- null}
r -t 0.21164 -s 3 -d 5 -p tcp -e 1540 -c 0 -i 18 -a 0 -x {0.0 5.0 11 ------- null}
+ -t 0.21164 -s 5 -d 3 -p ack -e 40 -c 0 -i 26 -a 0 -x {5.0 0.0 11 ------- null}
- -t 0.21164 -s 5 -d 3 -p ack -e 40 -c 0 -i 26 -a 0 -x {5.0 0.0 11 ------- null}
h -t 0.21164 -s 5 -d 3 -p ack -e 40 -c 0 -i 26 -a 0 -x {5.0 0.0 -1 ------- null}
r -t 0.2117632 -s 3 -d 5 -p tcp -e 1540 -c 0 -i 19 -a 0 -x {0.0 5.0 12 ------- null}
+ -t 0.2117632 -s 5 -d 3 -p ack -e 40 -c 0 -i 27 -a 0 -x {5.0 0.0 12 ------- null}
- -t 0.2117632 -s 5 -d 3 -p ack -e 40 -c 0 -i 27 -a 0 -x {5.0 0.0 12 ------- null}
h -t 0.2117632 -s 5 -d 3 -p ack -e 40 -c 0 -i 27 -a 0 -x {5.0 0.0 -1 ------- null}
r -t 0.2118864 -s 3 -d 5 -p tcp -e 1540 -c 0 -i 20 -a 0 -x {0.0 5.0 13 ------- null}
+ -t 0.2118864 -s 5 -d 3 -p ack -e 40 -c 0 -i 28 -a 0 -x {5.0 0.0 13 ------- null}
- -t 0.2118864 -s 5 -d 3 -p ack -e 40 -c 0 -i 28 -a 0 -x {5.0 0.0 13 ------- null}
h -t 0.2118864 -s 5 -d 3 -p ack -e 40 -c 0 -i 28 -a 0 -x {5.0 0.0 -1 ------- null}
r -t 0.2120096 -s 3 -d 5 -p tcp -e 1540 -c 0 -i 21 -a 0 -x {0.0 5.0 14 ------- null}
+ -t 0.2120096 -s 5 -d 3 -p ack -e 40 -c 0 -i 29 -a 0 -x {5.0 0.0 14 ------- null}
- -t 0.2120096 -s 5 -d 3 -p ack -e 40 -c 0 -i 29 -a 0 -x {5.0 0.0 14 ------- null}
h -t 0.2120096 -s 5 -d 3 -p ack -e 40 -c 0 -i 29 -a 0 -x {5.0 0.0 -1 ------- null}
r -t 0.2211504 -s 5 -d 3 -p ack -e 40 -c 0 -i 22 -a 0 -x {5.0 0.0 7 ------- null}
+ -t 0.2211504 -s 3 -d 2 -p ack -e 40 -c 0 -i 22 -a 0 -x {5.0 0.0 7 ------- null}
- -t 0.2211504 -s 3 -d 2 -p ack -e 40 -c 0 -i 22 -a 0 -x {5.0 0.0 7 ------- null}
h -t 0.2211504 -s 3 -d 2 -p ack -e 40 -c 0 -i 22 -a 0 -x {5.0 0.0 -1 ------- null}
r -t 0.2212736 -s 5 -d 3 -p ack -e 40 -c 0 -i 23 -a 0 -x {5.0 0.0 8 ------- null}
+ -t 0.2212736 -s 3 -d 2 -p ack -e 40 -c 0 -i 23 -a 0 -x {5.0 0.0 8 ------- null}
- -t 0.2212736 -s 3 -d 2 -p ack -e 40 -c 0 -i 23 -a 0 -x {5.0 0.0 8 ------- null}
h -t 0.2212736 -s 3 -d 2 -p ack -e 40 -c 0 -i 23 -a 0 -x {5.0 0.0 -1 ------- null}
r -t 0.2213968 -s 5 -d 3 -p ack -e 40 -c 0 -i 24 -a 0 -x {5.0 0.0 9 ------- null}
+ -t 0.2213968 -s 3 -d 2 -p ack -e 40 -c 0 -i 24 -a 0 -x {5.0 0.0 9 ------- null}
- -t 0.2213968 -s 3 -d 2 -p ack -e 40 -c 0 -i 24 -a 0 -x {5.0 0.0 9 ------- null}
h -t 0.2213968 -s 3 -d 2 -p ack -e 40 -c 0 -i 24 -a 0 -x {5.0 0.0 -1 ------- null}
r -t 0.22152 -s 5 -d 3 -p ack -e 40 -c 0 -i 25 -a 0 -x {5.0 0.0 10 ------- null}
+ -t 0.22152 -s 3 -d 2 -p ack -e 40 -c 0 -i 25 -a 0 -x {5.0 0.0 10 ------- null}
- -t 0.22152 -s 3 -d 2 -p ack -e 40 -c 0 -i 25 -a 0 -x {5.0 0.0 10 ------- null}
h -t 0.22152 -s 3 -d 2 -p ack -e 40 -c 0 -i 25 -a 0 -x {5.0 0.0 -1 ------- null}
r -t 0.2216432 -s 5 -d 3 -p ack -e 40 -c 0 -i 26 -a 0 -x {5.0 0.0 11 ------- null}
+ -t 0.2216432 -s 3 -d 2 -p ack -e 40 -c 0 -i 26 -a 0 -x {5.0 0.0 11 ------- null}
- -t 0.2216432 -s 3 -d 2 -p ack -e 40 -c 0 -i 26 -a 0 -x {5.0 0.0 11 ------- null}
h -t 0.2216432 -s 3 -d 2 -p ack -e 40 -c 0 -i 26 -a 0 -x {5.0 0.0 -1 ------- null}
r -t 0.2217664 -s 5 -d 3 -p ack -e 40 -c 0 -i 27 -a 0 -x {5.0 0.0 12 ------- null}
+ -t 0.2217664 -s 3 -d 2 -p ack -e 40 -c 0 -i 27 -a 0 -x {5.0 0.0 12 ------- null}
- -t 0.2217664 -s 3 -d 2 -p ack -e 40 -c 0 -i 27 -a 0 -x {5.0 0.0 12 ------- null}
h -t 0.2217664 -s 3 -d 2 -p ack -e 40 -c 0 -i 27 -a 0 -x {5.0 0.0 -1 ------- null}
r -t 0.2218896 -s 5 -d 3 -p ack -e 40 -c 0 -i 28 -a 0 -x {5.0 0.0 13 ------- null}
+ -t 0.2218896 -s 3 -d 2 -p ack -e 40 -c 0 -i 28 -a 0 -x {5.0 0.0 13 ------- null}
- -t 0.2218896 -s 3 -d 2 -p ack -e 40 -c 0 -i 28 -a 0 -x {5.0 0.0 13 ------- null}
h -t 0.2218896 -s 3 -d 2 -p ack -e 40 -c 0 -i 28 -a 0 -x {5.0 0.0 -1 ------- null}
r -t 0.2220128 -s 5 -d 3 -p ack -e 40 -c 0 -i 29 -a 0 -x {5.0 0.0 14 ------- null}
+ -t 0.2220128 -s 3 -d 2 -p ack -e 40 -c 0 -i 29 -a 0 -x {5.0 0.0 14 ------- null}
- -t 0.2220128 -s 3 -d 2 -p ack -e 40 -c 0 -i 29 -a 0 -x {5.0 0.0 14 ------- null}
h -t 0.2220128 -s 3 -d 2 -p ack -e 40 -c 0 -i 29 -a 0 -x {5.0 0.0 -1 ------- null}
r -t 0.2311536 -s 3 -d 2 -p ack -e 40 -c 0 -i 22 -a 0 -x {5.0 0.0 7 ------- null}
+ -t 0.2311536 -s 2 -d 0 -p ack -e 40 -c 0 -i 22 -a 0 -x {5.0 0.0 7 ------- null}
- -t 0.2311536 -s 2 -d 0 -p ack -e 40 -c 0 -i 22 -a 0 -x {5.0 0.0 7 ------- null}
h -t 0.2311536 -s 2 -d 0 -p ack -e 40 -c 0 -i 22 -a 0 -x {5.0 0.0 -1 ------- null}
r -t 0.2312768 -s 3 -d 2 -p ack -e 40 -c 0 -i 23 -a 0 -x {5.0 0.0 8 ------- null}
+ -t 0.2312768 -s 2 -d 0 -p ack -e 40 -c 0 -i 23 -a 0 -x {5.0 0.0 8 ------- null}
- -t 0.2312768 -s 2 -d 0 -p ack -e 40 -c 0 -i 23 -a 0 -x {5.0 0.0 8 ------- null}
h -t 0.2312768 -s 2 -d 0 -p ack -e 40 -c 0 -i 23 -a 0 -x {5.0 0.0 -1 ------- null}
r -t 0.2314 -s 3 -d 2 -p ack -e 40 -c 0 -i 24 -a 0 -x {5.0 0.0 9 ------- null}
+ -t 0.2314 -s 2 -d 0 -p ack -e 40 -c 0 -i 24 -a 0 -x {5.0 0.0 9 ------- null}
- -t 0.2314 -s 2 -d 0 -p ack -e 40 -c 0 -i 24 -a 0 -x {5.0 0.0 9 ------- null}
h -t 0.2314 -s 2 -d 0 -p ack -e 40 -c 0 -i 24 -a 0 -x {5.0 0.0 -1 ------- null}
r -t 0.2315232 -s 3 -d 2 -p ack -e 40 -c 0 -i 25 -a 0 -x {5.0 0.0 10 ------- null}
+ -t 0.2315232 -s 2 -d 0 -p ack -e 40 -c 0 -i 25 -a 0 -x {5.0 0.0 10 ------- null}
- -t 0.2315232 -s 2 -d 0 -p ack -e 40 -c 0 -i 25 -a 0 -x {5.0 0.0 10 ------- null}
h -t 0.2315232 -s 2 -d 0 -p ack -e 40 -c 0 -i 25 -a 0 -x {5.0 0.0 -1 ------- null}
r -t 0.2316464 -s 3 -d 2 -p ack -e 40 -c 0 -i 26 -a 0 -x {5.0 0.0 11 ------- null}
+ -t 0.2316464 -s 2 -d 0 -p ack -e 40 -c 0 -i 26 -a 0 -x {5.0 0.0 11 ------- null}
- -t 0.2316464 -s 2 -d 0 -p ack -e 40 -c 0 -i 26 -a 0 -x {5.0 0.0 11 ------- null}
h -t 0.2316464 -s 2 -d 0 -p ack -e 40 -c 0 -i 26 -a 0 -x {5.0 0.0 -1 ------- null}
r -t 0.2317696 -s 3 -d 2 -p ack -e 40 -c 0 -i 27 -a 0 -x {5.0 0.0 12 ------- null}
+ -t 0.2317696 -s 2 -d 0 -p ack -e 40 -c 0 -i 27 -a 0 -x {5.0 0.0 12 ------- null}
- -t 0.2317696 -s 2 -d 0 -p ack -e 40 -c 0 -i 27 -a 0 -x {5.0 0.0 12 ------- null}
h -t 0.2317696 -s 2 -d 0 -p ack -e 40 -c 0 -i 27 -a 0 -x {5.0 0.0 -1 ------- null}
r -t 0.2318928 -s 3 -d 2 -p ack -e 40 -c 0 -i 28 -a 0 -x {5.0 0.0 13 ------- null}
+ -t 0.2318928 -s 2 -d 0 -p ack -e 40 -c 0 -i 28 -a 0 -x {5.0 0.0 13 ------- null}
- -t 0.2318928 -s 2 -d 0 -p ack -e 40 -c 0 -i 28 -a 0 -x {5.0 0.0 13 ------- null}
h -t 0.2318928 -s 2 -d 0 -p ack -e 40 -c 0 -i 28 -a 0 -x {5.0 0.0 -1 ------- null}
r -t 0.232016 -s 3 -d 2 -p ack -e 40 -c 0 -i 29 -a 0 -x {5.0 0.0 14 ------- null}
+ -t 0.232016 -s 2 -d 0 -p ack -e 40 -c 0 -i 29 -a 0 -x {5.0 0.0 14 ------- null}
- -t 0.232016 -s 2 -d 0 -p ack -e 40 -c 0 -i 29 -a 0 -x {5.0 0.0 14 ------- null}
h -t 0.232016 -s 2 -d 0 -p ack -e 40 -c 0 -i 29 -a 0 -x {5.0 0.0 -1 ------- null}
r -t 0.2411568 -s 2 -d 0 -p ack -e 40 -c 0 -i 22 -a 0 -x {5.0 0.0 7 ------- null}