+ 0 0 1 tcp 40 ------- 0 0.0 3.0 0 0
- 0 0 1 tcp 40 ------- 0 0.0 3.0 0 0
r 0.010003 0 1 tcp 40 ------- 0 0.0 3.0 0 0
+ 0.010003 1 2 tcp 40 ------- 0 0.0 3.0 0 0
- 0.010003 1 2 tcp 40 ------- 0 0.0 3.0 0 0
r 0.020006 1 2 tcp 40 ------- 0 0.0 3.0 0 0
+ 0.020006 2 3 tcp 40 ------- 0 0.0 3.0 0 0
- 0.020006 2 3 tcp 40 ------- 0 0.0 3.0 0 0
r 0.03001 2 3 tcp 40 ------- 0 0.0 3.0 0 0
+ 0.03001 3 2 ack 40 ------- 0 3.0 0.0 0 1
- 0.03001 3 2 ack 40 ------- 0 3.0 0.0 0 1
r 0.040013 3 2 ack 40 ------- 0 3.0 0.0 0 1
+ 0.040013 2 1 ack 40 ------- 0 3.0 0.0 0 1
- 0.040013 2 1 ack 40 ------- 0 3.0 0.0 0 1
r 0.050016 2 1 ack 40 ------- 0 3.0 0.0 0 1
+ 0.050016 1 0 ack 40 ------- 0 3.0 0.0 0 1
- 0.050016 1 0 ack 40 ------- 0 3.0 0.0 0 1
r 0.060019 1 0 ack 40 ------- 0 3.0 0.0 0 1
+ 0.060019 0 1 tcp 1540 ------- 0 0.0 3.0 1 2
- 0.060019 0 1 tcp 1540 ------- 0 0.0 3.0 1 2
+ 0.060019 0 1 tcp 1540 ------- 0 0.0 3.0 2 3
- 0.060142 0 1 tcp 1540 ------- 0 0.0 3.0 2 3
r 0.070142 0 1 tcp 1540 ------- 0 0.0 3.0 1 2
+ 0.070142 1 2 tcp 1540 ------- 0 0.0 3.0 1 2
- 0.070142 1 2 tcp 1540 ------- 0 0.0 3.0 1 2
r 0.070266 0 1 tcp 1540 ------- 0 0.0 3.0 2 3
+ 0.070266 1 2 tcp 1540 ------- 0 0.0 3.0 2 3
- 0.070266 1 2 tcp 1540 ------- 0 0.0 3.0 2 3
r 0.080266 1 2 tcp 1540 ------- 0 0.0 3.0 1 2
+ 0.080266 2 3 tcp 1540 ------- 0 0.0 3.0 1 2
- 0.080266 2 3 tcp 1540 ------- 0 0.0 3.0 1 2
r 0.080389 1 2 tcp 1540 ------- 0 0.0 3.0 2 3
+ 0.080389 2 3 tcp 1540 ------- 0 0.0 3.0 2 3
- 0.080389 2 3 tcp 1540 ------- 0 0.0 3.0 2 3
r 0.090389 2 3 tcp 1540 ------- 0 0.0 3.0 1 2
+ 0.090389 3 2 ack 40 ------- 0 3.0 0.0 1 4
- 0.090389 3 2 ack 40 ------- 0 3.0 0.0 1 4
r 0.090512 2 3 tcp 1540 ------- 0 0.0 3.0 2 3
+ 0.090512 3 2 ack 40 ------- 0 3.0 0.0 2 5
- 0.090512 3 2 ack 40 ------- 0 3.0 0.0 2 5
r 0.100392 3 2 ack 40 ------- 0 3.0 0.0 1 4
+ 0.100392 2 1 ack 40 ------- 0 3.0 0.0 1 4
- 0.100392 2 1 ack 40 ------- 0 3.0 0.0 1 4
r 0.100515 3 2 ack 40 ------- 0 3.0 0.0 2 5
+ 0.100515 2 1 ack 40 ------- 0 3.0 0.0 2 5
- 0.100515 2 1 ack 40 ------- 0 3.0 0.0 2 5
r 0.110395 2 1 ack 40 ------- 0 3.0 0.0 1 4
+ 0.110395 1 0 ack 40 ------- 0 3.0 0.0 1 4
- 0.110395 1 0 ack 40 ------- 0 3.0 0.0 1 4
r 0.110518 2 1 ack 40 ------- 0 3.0 0.0 2 5
+ 0.110518 1 0 ack 40 ------- 0 3.0 0.0 2 5
- 0.110518 1 0 ack 40 ------- 0 3.0 0.0 2 5
r 0.120398 1 0 ack 40 ------- 0 3.0 0.0 1 4
+ 0.120398 0 1 tcp 1540 ------- 0 0.0 3.0 3 6
- 0.120398 0 1 tcp 1540 ------- 0 0.0 3.0 3 6
+ 0.120398 0 1 tcp 1540 ------- 0 0.0 3.0 4 7
r 0.120522 1 0 ack 40 ------- 0 3.0 0.0 2 5
+ 0.120522 0 1 tcp 1540 ------- 0 0.0 3.0 5 8
+ 0.120522 0 1 tcp 1540 ------- 0 0.0 3.0 6 9
- 0.120522 0 1 tcp 1540 ------- 0 0.0 3.0 4 7
- 0.120645 0 1 tcp 1540 ------- 0 0.0 3.0 5 8
- 0.120768 0 1 tcp 1540 ------- 0 0.0 3.0 6 9
r 0.130522 0 1 tcp 1540 ------- 0 0.0 3.0 3 6
+ 0.130522 1 2 tcp 1540 ------- 0 0.0 3.0 3 6
- 0.130522 1 2 tcp 1540 ------- 0 0.0 3.0 3 6
r 0.130645 0 1 tcp 1540 ------- 0 0.0 3.0 4 7
+ 0.130645 1 2 tcp 1540 ------- 0 0.0 3.0 4 7
- 0.130645 1 2 tcp 1540 ------- 0 0.0 3.0 4 7
r 0.130768 0 1 tcp 1540 ------- 0 0.0 3.0 5 8
+ 0.130768 1 2 tcp 1540 ------- 0 0.0 3.0 5 8
- 0.130768 1 2 tcp 1540 ------- 0 0.0 3.0 5 8
r 0.130891 0 1 tcp 1540 ------- 0 0.0 3.0 6 9
+ 0.130891 1 2 tcp 1540 ------- 0 0.0 3.0 6 9
- 0.130891 1 2 tcp 1540 ------- 0 0.0 3.0 6 9
r 0.140645 1 2 tcp 1540 ------- 0 0.0 3.0 3 6
+ 0.140645 2 3 tcp 1540 ------- 0 0.0 3.0 3 6
- 0.140645 2 3 tcp 1540 ------- 0 0.0 3.0 3 6
r 0.140768 1 2 tcp 1540 ------- 0 0.0 3.0 4 7
+ 0.140768 2 3 tcp 1540 ------- 0 0.0 3.0 4 7
- 0.140768 2 3 tcp 1540 ------- 0 0.0 3.0 4 7
r 0.140891 1 2 tcp 1540 ------- 0 0.0 3.0 5 8
+ 0.140891 2 3 tcp 1540 ------- 0 0.0 3.0 5 8
- 0.140891 2 3 tcp 1540 ------- 0 0.0 3.0 5 8
r 0.141014 1 2 tcp 1540 ------- 0 0.0 3.0 6 9
+ 0.141014 2 3 tcp 1540 ------- 0 0.0 3.0 6 9
- 0.141014 2 3 tcp 1540 ------- 0 0.0 3.0 6 9
r 0.150768 2 3 tcp 1540 ------- 0 0.0 3.0 3 6
+ 0.150768 3 2 ack 40 ------- 0 3.0 0.0 3 10
- 0.150768 3 2 ack 40 ------- 0 3.0 0.0 3 10
r 0.150891 2 3 tcp 1540 ------- 0 0.0 3.0 4 7
+ 0.150891 3 2 ack 40 ------- 0 3.0 0.0 4 11
- 0.150891 3 2 ack 40 ------- 0 3.0 0.0 4 11
r 0.151014 2 3 tcp 1540 ------- 0 0.0 3.0 5 8
+ 0.151014 3 2 ack 40 ------- 0 3.0 0.0 5 12
- 0.151014 3 2 ack 40 ------- 0 3.0 0.0 5 12
r 0.151138 2 3 tcp 1540 ------- 0 0.0 3.0 6 9
+ 0.151138 3 2 ack 40 ------- 0 3.0 0.0 6 13
- 0.151138 3 2 ack 40 ------- 0 3.0 0.0 6 13
r 0.160771 3 2 ack 40 ------- 0 3.0 0.0 3 10
+ 0.160771 2 1 ack 40 ------- 0 3.0 0.0 3 10
- 0.160771 2 1 ack 40 ------- 0 3.0 0.0 3 10
r 0.160894 3 2 ack 40 ------- 0 3.0 0.0 4 11
+ 0.160894 2 1 ack 40 ------- 0 3.0 0.0 4 11
- 0.160894 2 1 ack 40 ------- 0 3.0 0.0 4 11
r 0.161018 3 2 ack 40 ------- 0 3.0 0.0 5 12
+ 0.161018 2 1 ack 40 ------- 0 3.0 0.0 5 12
- 0.161018 2 1 ack 40 ------- 0 3.0 0.0 5 12
r 0.161141 3 2 ack 40 ------- 0 3.0 0.0 6 13
+ 0.161141 2 1 ack 40 ------- 0 3.0 0.0 6 13
- 0.161141 2 1 ack 40 ------- 0 3.0 0.0 6 13
r 0.170774 2 1 ack 40 ------- 0 3.0 0.0 3 10
+ 0.170774 1 0 ack 40 ------- 0 3.0 0.0 3 10
- 0.170774 1 0 ack 40 ------- 0 3.0 0.0 3 10
r 0.170898 2 1 ack 40 ------- 0 3.0 0.0 4 11
+ 0.170898 1 0 ack 40 ------- 0 3.0 0.0 4 11
- 0.170898 1 0 ack 40 ------- 0 3.0 0.0 4 11
r 0.171021 2 1 ack 40 ------- 0 3.0 0.0 5 12
+ 0.171021 1 0 ack 40 ------- 0 3.0 0.0 5 12
- 0.171021 1 0 ack 40 ------- 0 3.0 0.0 5 12
r 0.171144 2 1 ack 40 ------- 0 3.0 0.0 6 13
+ 0.171144 1 0 ack 40 ------- 0 3.0 0.0 6 13
- 0.171144 1 0 ack 40 ------- 0 3.0 0.0 6 13
r 0.180778 1 0 ack 40 ------- 0 3.0 0.0 3 10
+ 0.180778 0 1 tcp 1540 ------- 0 0.0 3.0 7 14
- 0.180778 0 1 tcp 1540 ------- 0 0.0 3.0 7 14
+ 0.180778 0 1 tcp 1540 ------- 0 0.0 3.0 8 15
- 0.180901 0 1 tcp 1540 ------- 0 0.0 3.0 8 15
r 0.180901 1 0 ack 40 ------- 0 3.0 0.0 4 11
+ 0.180901 0 1 tcp 1540 ------- 0 0.0 3.0 9 16
+ 0.180901 0 1 tcp 1540 ------- 0 0.0 3.0 10 17
- 0.181024 0 1 tcp 1540 ------- 0 0.0 3.0 9 16
r 0.181024 1 0 ack 40 ------- 0 3.0 0.0 5 12
+ 0.181024 0 1 tcp 1540 ------- 0 0.0 3.0 11 18
+ 0.181024 0 1 tcp 1540 ------- 0 0.0 3.0 12 19
- 0.181147 0 1 tcp 1540 ------- 0 0.0 3.0 10 17
r 0.181147 1 0 ack 40 ------- 0 3.0 0.0 6 13
+ 0.181147 0 1 tcp 1540 ------- 0 0.0 3.0 13 20
+ 0.181147 0 1 tcp 1540 ------- 0 0.0 3.0 14 21
- 0.18127 0 1 tcp 1540 ------- 0 0.0 3.0 11 18
- 0.181394 0 1 tcp 1540 ------- 0 0.0 3.0 12 19
- 0.181517 0 1 tcp 1540 ------- 0 0.0 3.0 13 20
- 0.18164 0 1 tcp 1540 ------- 0 0.0 3.0 14 21
r 0.190901 0 1 tcp 1540 ------- 0 0.0 3.0 7 14
+ 0.190901 1 2 tcp 1540 ------- 0 0.0 3.0 7 14
- 0.190901 1 2 tcp 1540 ------- 0 0.0 3.0 7 14
r 0.191024 0 1 tcp 1540 ------- 0 0.0 3.0 8 15
+ 0.191024 1 2 tcp 1540 ------- 0 0.0 3.0 8 15
- 0.191024 1 2 tcp 1540 ------- 0 0.0 3.0 8 15
r 0.191147 0 1 tcp 1540 ------- 0 0.0 3.0 9 16
+ 0.191147 1 2 tcp 1540 ------- 0 0.0 3.0 9 16
- 0.191147 1 2 tcp 1540 ------- 0 0.0 3.0 9 16
r 0.19127 0 1 tcp 1540 ------- 0 0.0 3.0 10 17
+ 0.19127 1 2 tcp 1540 ------- 0 0.0 3.0 10 17
- 0.19127 1 2 tcp 1540 ------- 0 0.0 3.0 10 17
r 0.191394 0 1 tcp 1540 ------- 0 0.0 3.0 11 18
+ 0.191394 1 2 tcp 1540 ------- 0 0.0 3.0 11 18
- 0.191394 1 2 tcp 1540 ------- 0 0.0 3.0 11 18
r 0.191517 0 1 tcp 1540 ------- 0 0.0 3.0 12 19
+ 0.191517 1 2 tcp 1540 ------- 0 0.0 3.0 12 19
- 0.191517 1 2 tcp 1540 ------- 0 0.0 3.0 12 19
r 0.19164 0 1 tcp 1540 ------- 0 0.0 3.0 13 20
+ 0.19164 1 2 tcp 1540 ------- 0 0.0 3.0 13 20
- 0.19164 1 2 tcp 1540 ------- 0 0.0 3.0 13 20
r 0.191763 0 1 tcp 1540 ------- 0 0.0 3.0 14 21
+ 0.191763 1 2 tcp 1540 ------- 0 0.0 3.0 14 21
- 0.191763 1 2 tcp 1540 ------- 0 0.0 3.0 14 21
r 0.201024 1 2 tcp 1540 ------- 0 0.0 3.0 7 14
+ 0.201024 2 3 tcp 1540 ------- 0 0.0 3.0 7 14
- 0.201024 2 3 tcp 1540 ------- 0 0.0 3.0 7 14
r 0.201147 1 2 tcp 1540 ------- 0 0.0 3.0 8 15
+ 0.201147 2 3 tcp 1540 ------- 0 0.0 3.0 8 15
- 0.201147 2 3 tcp 1540 ------- 0 0.0 3.0 8 15
r 0.20127 1 2 tcp 1540 ------- 0 0.0 3.0 9 16
+ 0.20127 2 3 tcp 1540 ------- 0 0.0 3.0 9 16
- 0.20127 2 3 tcp 1540 ------- 0 0.0 3.0 9 16
r 0.201394 1 2 tcp 1540 ------- 0 0.0 3.0 10 17
+ 0.201394 2 3 tcp 1540 ------- 0 0.0 3.0 10 17
- 0.201394 2 3 tcp 1540 ------- 0 0.0 3.0 10 17
r 0.201517 1 2 tcp 1540 ------- 0 0.0 3.0 11 18
+ 0.201517 2 3 tcp 1540 ------- 0 0.0 3.0 11 18
- 0.201517 2 3 tcp 1540 ------- 0 0.0 3.0 11 18
r 0.20164 1 2 tcp 1540 ------- 0 0.0 3.0 12 19
+ 0.20164 2 3 tcp 1540 ------- 0 0.0 3.0 12 19
- 0.20164 2 3 tcp 1540 ------- 0 0.0 3.0 12 19
r 0.201763 1 2 tcp 1540 ------- 0 0.0 3.0 13 20
+ 0.201763 2 3 tcp 1540 ------- 0 0.0 3.0 13 20
- 0.201763 2 3 tcp 1540 ------- 0 0.0 3.0 13 20
r 0.201886 1 2 tcp 1540 ------- 0 0.0 3.0 14 21
+ 0.201886 2 3 tcp 1540 ------- 0 0.0 3.0 14 21
- 0.201886 2 3 tcp 1540 ------- 0 0.0 3.0 14 21
r 0.211147 2 3 tcp 1540 ------- 0 0.0 3.0 7 14
+ 0.211147 3 2 ack 40 ------- 0 3.0 0.0 7 22
- 0.211147 3 2 ack 40 ------- 0 3.0 0.0 7 22
r 0.21127 2 3 tcp 1540 ------- 0 0.0 3.0 8 15
+ 0.21127 3 2 ack 40 ------- 0 3.0 0.0 8 23
- 0.21127 3 2 ack 40 ------- 0 3.0 0.0 8 23
r 0.211394 2 3 tcp 1540 ------- 0 0.0 3.0 9 16
+ 0.211394 3 2 ack 40 ------- 0 3.0 0.0 9 24
- 0.211394 3 2 ack 40 ------- 0 3.0 0.0 9 24
r 0.211517 2 3 tcp 1540 ------- 0 0.0 3.0 10 17
+ 0.211517 3 2 ack 40 ------- 0 3.0 0.0 10 25
- 0.211517 3 2 ack 40 ------- 0 3.0 0.0 10 25
r 0.21164 2 3 tcp 1540 ------- 0 0.0 3.0 11 18
+ 0.21164 3 2 ack 40 ------- 0 3.0 0.0 11 26
- 0.21164 3 2 ack 40 ------- 0 3.0 0.0 11 26
r 0.211763 2 3 tcp 1540 ------- 0 0.0 3.0 12 19
+ 0.211763 3 2 ack 40 ------- 0 3.0 0.0 12 27
- 0.211763 3 2 ack 40 ------- 0 3.0 0.0 12 27
r 0.211886 2 3 tcp 1540 ------- 0 0.0 3.0 13 20
+ 0.211886 3 2 ack 40 ------- 0 3.0 0.0 13 28
- 0.211886 3 2 ack 40 ------- 0 3.0 0.0 13 28
r 0.21201 2 3 tcp 1540 ------- 0 0.0 3.0 14 21
+ 0.21201 3 2 ack 40 ------- 0 3.0 0.0 14 29
- 0.21201 3 2 ack 40 ------- 0 3.0 0.0 14 29
r 0.22115 3 2 ack 40 ------- 0 3.0 0.0 7 22
+ 0.22115 2 1 ack 40 ------- 0 3.0 0.0 7 22
- 0.22115 2 1 ack 40 ------- 0 3.0 0.0 7 22
r 0.221274 3 2 ack 40 ------- 0 3.0 0.0 8 23
+ 0.221274 2 1 ack 40 ------- 0 3.0 0.0 8 23
- 0.221274 2 1 ack 40 ------- 0 3.0 0.0 8 23
r 0.221397 3 2 ack 40 ------- 0 3.0 0.0 9 24
+ 0.221397 2 1 ack 40 ------- 0 3.0 0.0 9 24
- 0.221397 2 1 ack 40 ------- 0 3.0 0.0 9 24
r 0.22152 3 2 ack 40 ------- 0 3.0 0.0 10 25
+ 0.22152 2 1 ack 40 ------- 0 3.0 0.0 10 25
- 0.22152 2 1 ack 40 ------- 0 3.0 0.0 10 25
r 0.221643 3 2 ack 40 ------- 0 3.0 0.0 11 26
+ 0.221643 2 1 ack 40 ------- 0 3.0 0.0 11 26
- 0.221643 2 1 ack 40 ------- 0 3.0 0.0 11 26
r 0.221766 3 2 ack 40 ------- 0 3.0 0.0 12 27
+ 0.221766 2 1 ack 40 ------- 0 3.0 0.0 12 27
- 0.221766 2 1 ack 40 ------- 0 3.0 0.0 12 27
r 0.22189 3 2 ack 40 ------- 0 3.0 0.0 13 28
+ 0.22189 2 1 ack 40 ------- 0 3.0 0.0 13 28
- 0.22189 2 1 ack 40 ------- 0 3.0 0.0 13 28
r 0.222013 3 2 ack 40 ------- 0 3.0 0.0 14 29
+ 0.222013 2 1 ack 40 ------- 0 3.0 0.0 14 29
- 0.222013 2 1 ack 40 ------- 0 3.0 0.0 14 29
r 0.231154 2 1 ack 40 ------- 0 3.0 0.0 7 22
+ 0.231154 1 0 ack 40 ------- 0 3.0 0.0 7 22
- 0.231154 1 0 ack 40 ------- 0 3.0 0.0 7 22
r 0.231277 2 1 ack 40 ------- 0 3.0 0.0 8 23
+ 0.231277 1 0 ack 40 ------- 0 3.0 0.0 8 23
- 0.231277 1 0 ack 40 ------- 0 3.0 0.0 8 23
r 0.2314 2 1 ack 40 ------- 0 3.0 0.0 9 24
+ 0.2314 1 0 ack 40 ------- 0 3.0 0.0 9 24
- 0.2314 1 0 ack 40 ------- 0 3.0 0.0 9 24
r 0.231523 2 1 ack 40 ------- 0 3.0 0.0 10 25
+ 0.231523 1 0 ack 40 ------- 0 3.0 0.0 10 25
- 0.231523 1 0 ack 40 ------- 0 3.0 0.0 10 25
r 0.231646 2 1 ack 40 ------- 0 3.0 0.0 11 26
+ 0.231646 1 0 ack 40 ------- 0 3.0 0.0 11 26
- 0.231646 1 0 ack 40 ------- 0 3.0 0.0 11 26
r 0.23177 2 1 ack 40 ------- 0 3.0 0.0 12 27
+ 0.23177 1 0 ack 40 ------- 0 3.0 0.0 12 27
- 0.23177 1 0 ack 40 ------- 0 3.0 0.0 12 27
r 0.231893 2 1 ack 40 ------- 0 3.0 0.0 13 28
+ 0.231893 1 0 ack 40 ------- 0 3.0 0.0 13 28
- 0.231893 1 0 ack 40 ------- 0 3.0 0.0 13 28
r 0.232016 2 1 ack 40 ------- 0 3.0 0.0 14 29
+ 0.232016 1 0 ack 40 ------- 0 3.0 0.0 14 29
- 0.232016 1 0 ack 40 ------- 0 3.0 0.0 14 29
r 0.241157 1 0 ack 40 ------- 0 3.0 0.0 7 22
+ 0.241157 0 1 tcp 1540 ------- 0 0.0 3.0 15 30
- 0.241157 0 1 tcp 1540 ------- 0 0.0 3.0 15 30
+ 0.241157 0 1 tcp 1540 ------- 0 0.0 3.0 16 31
r 0.24128 1 0 ack 40 ------- 0 3.0 0.0 8 23
+ 0.24128 0 1 tcp 1540 ------- 0 0.0 3.0 17 32
+ 0.24128 0 1 tcp 1540 ------- 0 0.0 3.0 18 33
- 0.24128 0 1 tcp 1540 ------- 0 0.0 3.0 16 31
r 0.241403 1 0 ack 40 ------- 0 3.0 0.0 9 24
+ 0.241403 0 1 tcp 1540 ------- 0 0.0 3.0 19 34
+ 0.241403 0 1 tcp 1540 ------- 0 0.0 3.0 20 35
- 0.241403 0 1 tcp 1540 ------- 0 0.0 3.0 17 32
r 0.241526 1 0 ack 40 ------- 0 3.0 0.0 10 25
+ 0.241526 0 1 tcp 1540 ------- 0 0.0 3.0 21 36
+ 0.241526 0 1 tcp 1540 ------- 0 0.0 3.0 22 37
- 0.241526 0 1 tcp 1540 ------- 0 0.0 3.0 18 33
r 0.24165 1 0 ack 40 ------- 0 3.0 0.0 11 26
+ 0.24165 0 1 tcp 1540 ------- 0 0.0 3.0 23 38
+ 0.24165 0 1 tcp 1540 ------- 0 0.0 3.0 24 39
- 0.24165 0 1 tcp 1540 ------- 0 0.0 3.0 19 34
r 0.241773 1 0 ack 40 ------- 0 3.0 0.0 12 27
+ 0.241773 0 1 tcp 1540 ------- 0 0.0 3.0 25 40
+ 0.241773 0 1 tcp 1540 ------- 0 0.0 3.0 26 41
- 0.241773 0 1 tcp 1540 ------- 0 0.0 3.0 20 35
r 0.241896 1 0 ack 40 ------- 0 3.0 0.0 13 28
+ 0.241896 0 1 tcp 1540 ------- 0 0.0 3.0 27 42
+ 0.241896 0 1 tcp 1540 ------- 0 0.0 3.0 28 43
- 0.241896 0 1 tcp 1540 ------- 0 0.0 3.0 21 36
r 0.242019 1 0 ack 40 ------- 0 3.0 0.0 14 29
+ 0.242019 0 1 tcp 1540 ------- 0 0.0 3.0 29 44
+ 0.242019 0 1 tcp 1540 ------- 0 0.0 3.0 30 45
- 0.242019 0 1 tcp 1540 ------- 0 0.0 3.0 22 37
- 0.242142 0 1 tcp 1540 ------- 0 0.0 3.0 23 38
- 0.242266 0 1 tcp 1540 ------- 0 0.0 3.0 24 39
- 0.242389 0 1 tcp 1540 ------- 0 0.0 3.0 25 40
- 0.242512 0 1 tcp 1540 ------- 0 0.0 3.0 26 41
- 0.242635 0 1 tcp 1540 ------- 0 0.0 3.0 27 42
- 0.242758 0 1 tcp 1540 ------- 0 0.0 3.0 28 43
- 0.242882 0 1 tcp 1540 ------- 0 0.0 3.0 29 44
- 0.243005 0 1 tcp 1540 ------- 0 0.0 3.0 30 45
r 0.25128 0 1 tcp 1540 ------- 0 0.0 3.0 15 30
+ 0.25128 1 2 tcp 1540 ------- 0 0.0 3.0 15 30
- 0.25128 1 2 tcp 1540 ------- 0 0.0 3.0 15 30
r 0.251403 0 1 tcp 1540 ------- 0 0.0 3.0 16 31
+ 0.251403 1 2 tcp 1540 ------- 0 0.0 3.0 16 31
- 0.251403 1 2 tcp 1540 ------- 0 0.0 3.0 16 31
r 0.251526 0 1 tcp 1540 ------- 0 0.0 3.0 17 32
+ 0.251526 1 2 tcp 1540 ------- 0 0.0 3.0 17 32
- 0.251526 1 2 tcp 1540 ------- 0 0.0 3.0 17 32
r 0.25165 0 1 tcp 1540 ------- 0 0.0 3.0 18 33
+ 0.25165 1 2 tcp 1540 ------- 0 0.0 3.0 18 33
- 0.25165 1 2 tcp 1540 ------- 0 0.0 3.0 18 33
r 0.251773 0 1 tcp 1540 ------- 0 0.0 3.0 19 34
+ 0.251773 1 2 tcp 1540 ------- 0 0.0 3.0 19 34
- 0.251773 1 2 tcp 1540 ------- 0 0.0 3.0 19 34
r 0.251896 0 1 tcp 1540 ------- 0 0.0 3.0 20 35
+ 0.251896 1 2 tcp 1540 ------- 0 0.0 3.0 20 35
- 0.251896 1 2 tcp 1540 ------- 0 0.0 3.0 20 35
r 0.252019 0 1 tcp 1540 ------- 0 0.0 3.0 21 36
+ 0.252019 1 2 tcp 1540 ------- 0 0.0 3.0 21 36
- 0.252019 1 2 tcp 1540 ------- 0 0.0 3.0 21 36
r 0.252142 0 1 tcp 1540 ------- 0 0.0 3.0 22 37
+ 0.252142 1 2 tcp 1540 ------- 0 0.0 3.0 22 37
- 0.252142 1 2 tcp 1540 ------- 0 0.0 3.0 22 37
r 0.252266 0 1 tcp 1540 ------- 0 0.0 3.0 23 38
+ 0.252266 1 2 tcp 1540 ------- 0 0.0 3.0 23 38
- 0.252266 1 2 tcp 1540 ------- 0 0.0 3.0 23 38
r 0.252389 0 1 tcp 1540 ------- 0 0.0 3.0 24 39
+ 0.252389 1 2 tcp 1540 ------- 0 0.0 3.0 24 39
- 0.252389 1 2 tcp 1540 ------- 0 0.0 3.0 24 39
r 0.252512 0 1 tcp 1540 ------- 0 0.0 3.0 25 40
+ 0.252512 1 2 tcp 1540 ------- 0 0.0 3.0 25 40
- 0.252512 1 2 tcp 1540 ------- 0 0.0 3.0 25 40
r 0.252635 0 1 tcp 1540 ------- 0 0.0 3.0 26 41
+ 0.252635 1 2 tcp 1540 ------- 0 0.0 3.0 26 41
- 0.252635 1 2 tcp 1540 ------- 0 0.0 3.0 26 41
r 0.252758 0 1 tcp 1540 ------- 0 0.0 3.0 27 42
+ 0.252758 1 2 tcp 1540 ------- 0 0.0 3.0 27 42
- 0.252758 1 2 tcp 1540 ------- 0 0.0 3.0 27 42
r 0.252882 0 1 tcp 1540 ------- 0 0.0 3.0 28 43
+ 0.252882 1 2 tcp 1540 ------- 0 0.0 3.0 28 43
- 0.252882 1 2 tcp 1540 ------- 0 0.0 3.0 28 43
r 0.253005 0 1 tcp 1540 ------- 0 0.0 3.0 29 44
+ 0.253005 1 2 tcp 1540 ------- 0 0.0 3.0 29 44
- 0.253005 1 2 tcp 1540 ------- 0 0.0 3.0 29 44
r 0.253128 0 1 tcp 1540 ------- 0 0.0 3.0 30 45
+ 0.253128 1 2 tcp 1540 ------- 0 0.0 3.0 30 45
- 0.253128 1 2 tcp 1540 ------- 0 0.0 3.0 30 45
r 0.261403 1 2 tcp 1540 ------- 0 0.0 3.0 15 30
+ 0.261403 2 3 tcp 1540 ------- 0 0.0 3.0 15 30
- 0.261403 2 3 tcp 1540 ------- 0 0.0 3.0 15 30
r 0.261526 1 2 tcp 1540 ------- 0 0.0 3.0 16 31
+ 0.261526 2 3 tcp 1540 ------- 0 0.0 3.0 16 31
- 0.261526 2 3 tcp 1540 ------- 0 0.0 3.0 16 31
r 0.26165 1 2 tcp 1540 ------- 0 0.0 3.0 17 32
+ 0.26165 2 3 tcp 1540 ------- 0 0.0 3.0 17 32
- 0.26165 2 3 tcp 1540 ------- 0 0.0 3.0 17 32
r 0.261773 1 2 tcp 1540 ------- 0 0.0 3.0 18 33
+ 0.261773 2 3 tcp 1540 ------- 0 0.0 3.0 18 33
- 0.261773 2 3 tcp 1540 ------- 0 0.0 3.0 18 33
r 0.261896 1 2 tcp 1540 ------- 0 0.0 3.0 19 34
+ 0.261896 2 3 tcp 1540 ------- 0 0.0 3.0 19 34
- 0.261896 2 3 tcp 1540 ------- 0 0.0 3.0 19 34
r 0.262019 1 2 tcp 1540 ------- 0 0.0 3.0 20 35
+ 0.262019 2 3 tcp 1540 ------- 0 0.0 3.0 20 35
- 0.262019 2 3 tcp 1540 ------- 0 0.0 3.0 20 35
r 0.262142 1 2 tcp 1540 ------- 0 0.0 3.0 21 36
+ 0.262142 2 3 tcp 1540 ------- 0 0.0 3.0 21 36
- 0.262142 2 3 tcp 1540 ------- 0 0.0 3.0 21 36
r 0.262266 1 2 tcp 1540 ------- 0 0.0 3.0 22 37
+ 0.262266 2 3 tcp 1540 ------- 0 0.0 3.0 22 37
- 0.262266 2 3 tcp 1540 ------- 0 0.0 3.0 22 37
r 0.262389 1 2 tcp 1540 ------- 0 0.0 3.0 23 38
+ 0.262389 2 3 tcp 1540 ------- 0 0.0 3.0 23 38
- 0.262389 2 3 tcp 1540 ------- 0 0.0 3.0 23 38
r 0.262512 1 2 tcp 1540 ------- 0 0.0 3.0 24 39
+ 0.262512 2 3 tcp 1540 ------- 0 0.0 3.0 24 39
- 0.262512 2 3 tcp 1540 ------- 0 0.0 3.0 24 39
r 0.262635 1 2 tcp 1540 ------- 0 0.0 3.0 25 40
+ 0.262635 2 3 tcp 1540 ------- 0 0.0 3.0 25 40
- 0.262635 2 3 tcp 1540 ------- 0 0.0 3.0 25 40
r 0.262758 1 2 tcp 1540 ------- 0 0.0 3.0 26 41
+ 0.262758 2 3 tcp 1540 ------- 0 0.0 3.0 26 41
- 0.262758 2 3 tcp 1540 ------- 0 0.0 3.0 26 41
r 0.262882 1 2 tcp 1540 ------- 0 0.0 3.0 27 42
+ 0.262882 2 3 tcp 1540 ------- 0 0.0 3.0 27 42
- 0.262882 2 3 tcp 1540 ------- 0 0.0 3.0 27 42
r 0.263005 1 2 tcp 1540 ------- 0 0.0 3.0 28 43
+ 0.263005 2 3 tcp 1540 ------- 0 0.0 3.0 28 43
- 0.263005 2 3 tcp 1540 ------- 0 0.0 3.0 28 43
r 0.263128 1 2 tcp 1540 ------- 0 0.0 3.0 29 44
+ 0.263128 2 3 tcp 1540 ------- 0 0.0 3.0 29 44
- 0.263128 2 3 tcp 1540 ------- 0 0.0 3.0 29 44
r 0.263251 1 2 tcp 1540 ------- 0 0.0 3.0 30 45
+ 0.263251 2 3 tcp 1540 ------- 0 0.0 3.0 30 45
- 0.263251 2 3 tcp 1540 ------- 0 0.0 3.0 30 45
r 0.271526 2 3 tcp 1540 ------- 0 0.0 3.0 15 30
+ 0.271526 3 2 ack 40 ------- 0 3.0 0.0 15 46
- 0.271526 3 2 ack 40 ------- 0 3.0 0.0 15 46
r 0.27165 2 3 tcp 1540 ------- 0 0.0 3.0 16 31
+ 0.27165 3 2 ack 40 ------- 0 3.0 0.0 16 47
- 0.27165 3 2 ack 40 ------- 0 3.0 0.0 16 47
r 0.271773 2 3 tcp 1540 ------- 0 0.0 3.0 17 32
+ 0.271773 3 2 ack 40 ------- 0 3.0 0.0 17 48
- 0.271773 3 2 ack 40 ------- 0 3.0 0.0 17 48
r 0.271896 2 3 tcp 1540 ------- 0 0.0 3.0 18 33
+ 0.271896 3 2 ack 40 ------- 0 3.0 0.0 18 49
- 0.271896 3 2 ack 40 ------- 0 3.0 0.0 18 49
r 0.272019 2 3 tcp 1540 ------- 0 0.0 3.0 19 34
+ 0.272019 3 2 ack 40 ------- 0 3.0 0.0 19 50
- 0.272019 3 2 ack 40 ------- 0 3.0 0.0 19 50
r 0.272142 2 3 tcp 1540 ------- 0 0.0 3.0 20 35
+ 0.272142 3 2 ack 40 ------- 0 3.0 0.0 20 51
- 0.272142 3 2 ack 40 ------- 0 3.0 0.0 20 51
r 0.272266 2 3 tcp 1540 ------- 0 0.0 3.0 21 36
+ 0.272266 3 2 ack 40 ------- 0 3.0 0.0 21 52
- 0.272266 3 2 ack 40 ------- 0 3.0 0.0 21 52
r 0.272389 2 3 tcp 1540 ------- 0 0.0 3.0 22 37
+ 0.272389 3 2 ack 40 ------- 0 3.0 0.0 22 53
- 0.272389 3 2 ack 40 ------- 0 3.0 0.0 22 53
r 0.272512 2 3 tcp 1540 ------- 0 0.0 3.0 23 38
+ 0.272512 3 2 ack 40 ------- 0 3.0 0.0 23 54
- 0.272512 3 2 ack 40 ------- 0 3.0 0.0 23 54
r 0.272635 2 3 tcp 1540 ------- 0 0.0 3.0 24 39
+ 0.272635 3 2 ack 40 ------- 0 3.0 0.0 24 55
- 0.272635 3 2 ack 40 ------- 0 3.0 0.0 24 55
r 0.272758 2 3 tcp 1540 ------- 0 0.0 3.0 25 40
+ 0.272758 3 2 ack 40 ------- 0 3.0 0.0 25 56
- 0.272758 3 2 ack 40 ------- 0 3.0 0.0 25 56
r 0.272882 2 3 tcp 1540 ------- 0 0.0 3.0 26 41
+ 0.272882 3 2 ack 40 ------- 0 3.0 0.0 26 57
- 0.272882 3 2 ack 40 ------- 0 3.0 0.0 26 57
r 0.273005 2 3 tcp 1540 ------- 0 0.0 3.0 27 42
+ 0.273005 3 2 ack 40 ------- 0 3.0 0.0 27 58
- 0.273005 3 2 ack 40 ------- 0 3.0 0.0 27 58
r 0.273128 2 3 tcp 1540 ------- 0 0.0 3.0 28 43
+ 0.273128 3 2 ack 40 ------- 0 3.0 0.0 28 59
- 0.273128 3 2 ack 40 ------- 0 3.0 0.0 28 59
r 0.273251 2 3 tcp 1540 ------- 0 0.0 3.0 29 44
+ 0.273251 3 2 ack 40 ------- 0 3.0 0.0 29 60
- 0.273251 3 2 ack 40 ------- 0 3.0 0.0 29 60
r 0.273374 2 3 tcp 1540 ------- 0 0.0 3.0 30 45
+ 0.273374 3 2 ack 40 ------- 0 3.0 0.0 30 61
- 0.273374 3 2 ack 40 ------- 0 3.0 0.0 30 61
r 0.28153 3 2 ack 40 ------- 0 3.0 0.0 15 46
+ 0.28153 2 1 ack 40 ------- 0 3.0 0.0 15 46
- 0.28153 2 1 ack 40 ------- 0 3.0 0.0 15 46
r 0.281653 3 2 ack 40 ------- 0 3.0 0.0 16 47
+ 0.281653 2 1 ack 40 ------- 0 3.0 0.0 16 47
- 0.281653 2 1 ack 40 ------- 0 3.0 0.0 16 47
r 0.281776 3 2 ack 40 ------- 0 3.0 0.0 17 48
+ 0.281776 2 1 ack 40 ------- 0 3.0 0.0 17 48
- 0.281776 2 1 ack 40 ------- 0 3.0 0.0 17 48
r 0.281899 3 2 ack 40 ------- 0 3.0 0.0 18 49
+ 0.281899 2 1 ack 40 ------- 0 3.0 0.0 18 49
- 0.281899 2 1 ack 40 ------- 0 3.0 0.0 18 49
r 0.282022 3 2 ack 40 ------- 0 3.0 0.0 19 50
+ 0.282022 2 1 ack 40 ------- 0 3.0 0.0 19 50
- 0.282022 2 1 ack 40 ------- 0 3.0 0.0 19 50
r 0.282146 3 2 ack 40 ------- 0 3.0 0.0 20 51
+ 0.282146 2 1 ack 40 ------- 0 3.0 0.0 20 51
- 0.282146 2 1 ack 40 ------- 0 3.0 0.0 20 51
r 0.282269 3 2 ack 40 ------- 0 3.0 0.0 21 52
+ 0.282269 2 1 ack 40 ------- 0 3.0 0.0 21 52
- 0.282269 2 1 ack 40 ------- 0 3.0 0.0 21 52
r 0.282392 3 2 ack 40 ------- 0 3.0 0.0 22 53
+ 0.282392 2 1 ack 40 ------- 0 3.0 0.0 22 53
- 0.282392 2 1 ack 40 ------- 0 3.0 0.0 22 53
r 0.282515 3 2 ack 40 ------- 0 3.0 0.0 23 54
+ 0.282515 2 1 ack 40 ------- 0 3.0 0.0 23 54
- 0.282515 2 1 ack 40 ------- 0 3.0 0.0 23 54
r 0.282638 3 2 ack 40 ------- 0 3.0 0.0 24 55
+ 0.282638 2 1 ack 40 ------- 0 3.0 0.0 24 55
- 0.282638 2 1 ack 40 ------- 0 3.0 0.0 24 55
r 0.282762 3 2 ack 40 ------- 0 3.0 0.0 25 56
+ 0.282762 2 1 ack 40 ------- 0 3.0 0.0 25 56
- 0.282762 2 1 ack 40 ------- 0 3.0 0.0 25 56
r 0.282885 3 2 ack 40 ------- 0 3.0 0.0 26 57
+ 0.282885 2 1 ack 40 ------- 0 3.0 0.0 26 57
- 0.282885 2 1 ack 40 ------- 0 3.0 0.0 26 57
r 0.283008 3 2 ack 40 ------- 0 3.0 0.0 27 58
+ 0.283008 2 1 ack 40 ------- 0 3.0 0.0 27 58
- 0.283008 2 1 ack 40 ------- 0 3.0 0.0 27 58
r 0.283131 3 2 ack 40 ------- 0 3.0 0.0 28 59
+ 0.283131 2 1 ack 40 ------- 0 3.0 0.0 28 59
- 0.283131 2 1 ack 40 ------- 0 3.0 0.0 28 59
r 0.283254 3 2 ack 40 ------- 0 3.0 0.0 29 60
+ 0.283254 2 1 ack 40 ------- 0 3.0 0.0 29 60
- 0.283254 2 1 ack 40 ------- 0 3.0 0.0 29 60
r 0.283378 3 2 ack 40 ------- 0 3.0 0.0 30 61
+ 0.283378 2 1 ack 40 ------- 0 3.0 0.0 30 61
- 0.283378 2 1 ack 40 ------- 0 3.0 0.0 30 61
r 0.291533 2 1 ack 40 ------- 0 3.0 0.0 15 46
+ 0.291533 1 0 ack 40 ------- 0 3.0 0.0 15 46
- 0.291533 1 0 ack 40 ------- 0 3.0 0.0 15 46
r 0.291656 2 1 ack 40 ------- 0 3.0 0.0 16 47
+ 0.291656 1 0 ack 40 ------- 0 3.0 0.0 16 47
- 0.291656 1 0 ack 40 ------- 0 3.0 0.0 16 47
r 0.291779 2 1 ack 40 ------- 0 3.0 0.0 17 48
+ 0.291779 1 0 ack 40 ------- 0 3.0 0.0 17 48
- 0.291779 1 0 ack 40 ------- 0 3.0 0.0 17 48
r 0.291902 2 1 ack 40 ------- 0 3.0 0.0 18 49
+ 0.291902 1 0 ack 40 ------- 0 3.0 0.0 18 49
- 0.291902 1 0 ack 40 ------- 0 3.0 0.0 18 49
r 0.292026 2 1 ack 40 ------- 0 3.0 0.0 19 50
+ 0.292026 1 0 ack 40 ------- 0 3.0 0.0 19 50
- 0.292026 1 0 ack 40 ------- 0 3.0 0.0 19 50
r 0.292149 2 1 ack 40 ------- 0 3.0 0.0 20 51
+ 0.292149 1 0 ack 40 ------- 0 3.0 0.0 20 51
- 0.292149 1 0 ack 40 ------- 0 3.0 0.0 20 51
r 0.292272 2 1 ack 40 ------- 0 3.0 0.0 21 52
+ 0.292272 1 0 ack 40 ------- 0 3.0 0.0 21 52
- 0.292272 1 0 ack 40 ------- 0 3.0 0.0 21 52
r 0.292395 2 1 ack 40 ------- 0 3.0 0.0 22 53
+ 0.292395 1 0 ack 40 ------- 0 3.0 0.0 22 53
- 0.292395 1 0 ack 40 ------- 0 3.0 0.0 22 53
r 0.292518 2 1 ack 40 ------- 0 3.0 0.0 23 54
+ 0.292518 1 0 ack 40 ------- 0 3.0 0.0 23 54
- 0.292518 1 0 ack 40 ------- 0 3.0 0.0 23 54
r 0.292642 2 1 ack 40 ------- 0 3.0 0.0 24 55
+ 0.292642 1 0 ack 40 ------- 0 3.0 0.0 24 55
- 0.292642 1 0 ack 40 ------- 0 3.0 0.0 24 55
r 0.292765 2 1 ack 40 ------- 0 3.0 0.0 25 56
+ 0.292765 1 0 ack 40 ------- 0 3.0 0.0 25 56
- 0.292765 1 0 ack 40 ------- 0 3.0 0.0 25 56
r 0.292888 2 1 ack 40 ------- 0 3.0 0.0 26 57
+ 0.292888 1 0 ack 40 ------- 0 3.0 0.0 26 57
- 0.292888 1 0 ack 40 ------- 0 3.0 0.0 26 57
r 0.293011 2 1 ack 40 ------- 0 3.0 0.0 27 58
+ 0.293011 1 0 ack 40 ------- 0 3.0 0.0 27 58
- 0.293011 1 0 ack 40 ------- 0 3.0 0.0 27 58
r 0.293134 2 1 ack 40 ------- 0 3.0 0.0 28 59
+ 0.293134 1 0 ack 40 ------- 0 3.0 0.0 28 59
- 0.293134 1 0 ack 40 ------- 0 3.0 0.0 28 59
r 0.293258 2 1 ack 40 ------- 0 3.0 0.0 29 60
+ 0.293258 1 0 ack 40 ------- 0 3.0 0.0 29 60
- 0.293258 1 0 ack 40 ------- 0 3.0 0.0 29 60
r 0.293381 2 1 ack 40 ------- 0 3.0 0.0 30 61
+ 0.293381 1 0 ack 40 ------- 0 3.0 0.0 30 61
- 0.293381 1 0 ack 40 ------- 0 3.0 0.0 30 61
r 0.301536 1 0 ack 40 ------- 0 3.0 0.0 15 46
+ 0.301536 0 1 tcp 1540 ------- 0 0.0 3.0 31 62
- 0.301536 0 1 tcp 1540 ------- 0 0.0 3.0 31 62
+ 0.301536 0 1 tcp 1540 ------- 0 0.0 3.0 32 63
r 0.301659 1 0 ack 40 ------- 0 3.0 0.0 16 47
+ 0.301659 0 1 tcp 1540 ------- 0 0.0 3.0 33 64
+ 0.301659 0 1 tcp 1540 ------- 0 0.0 3.0 34 65
- 0.301659 0 1 tcp 1540 ------- 0 0.0 3.0 32 63
r 0.301782 1 0 ack 40 ------- 0 3.0 0.0 17 48
+ 0.301782 0 1 tcp 1540 ------- 0 0.0 3.0 35 66
+ 0.301782 0 1 tcp 1540 ------- 0 0.0 3.0 36 67
- 0.301782 0 1 tcp 1540 ------- 0 0.0 3.0 33 64
r 0.301906 1 0 ack 40 ------- 0 3.0 0.0 18 49
+ 0.301906 0 1 tcp 1540 ------- 0 0.0 3.0 37 68
+ 0.301906 0 1 tcp 1540 ------- 0 0.0 3.0 38 69
- 0.301906 0 1 tcp 1540 ------- 0 0.0 3.0 34 65
r 0.302029 1 0 ack 40 ------- 0 3.0 0.0 19 50
+ 0.302029 0 1 tcp 1540 ------- 0 0.0 3.0 39 70
- 0.302029 0 1 tcp 1540 ------- 0 0.0 3.0 35 66
r 0.302152 1 0 ack 40 ------- 0 3.0 0.0 20 51
+ 0.302152 0 1 tcp 1540 ------- 0 0.0 3.0 40 71
- 0.302152 0 1 tcp 1540 ------- 0 0.0 3.0 36 67
r 0.302275 1 0 ack 40 ------- 0 3.0 0.0 21 52
+ 0.302275 0 1 tcp 1540 ------- 0 0.0 3.0 41 72
- 0.302275 0 1 tcp 1540 ------- 0 0.0 3.0 37 68
r 0.302398 1 0 ack 40 ------- 0 3.0 0.0 22 53
+ 0.302398 0 1 tcp 1540 ------- 0 0.0 3.0 42 73
- 0.302398 0 1 tcp 1540 ------- 0 0.0 3.0 38 69
r 0.302522 1 0 ack 40 ------- 0 3.0 0.0 23 54
+ 0.302522 0 1 tcp 1540 ------- 0 0.0 3.0 43 74
- 0.302522 0 1 tcp 1540 ------- 0 0.0 3.0 39 70
r 0.302645 1 0 ack 40 ------- 0 3.0 0.0 24 55
+ 0.302645 0 1 tcp 1540 ------- 0 0.0 3.0 44 75
- 0.302645 0 1 tcp 1540 ------- 0 0.0 3.0 40 71
r 0.302768 1 0 ack 40 ------- 0 3.0 0.0 25 56
+ 0.302768 0 1 tcp 1540 ------- 0 0.0 3.0 45 76
- 0.302768 0 1 tcp 1540 ------- 0 0.0 3.0 41 72
r 0.302891 1 0 ack 40 ------- 0 3.0 0.0 26 57
+ 0.302891 0 1 tcp 1540 ------- 0 0.0 3.0 46 77
- 0.302891 0 1 tcp 1540 ------- 0 0.0 3.0 42 73
r 0.303014 1 0 ack 40 ------- 0 3.0 0.0 27 58
+ 0.303014 0 1 tcp 1540 ------- 0 0.0 3.0 47 78
- 0.303014 0 1 tcp 1540 ------- 0 0.0 3.0 43 74
r 0.303138 1 0 ack 40 ------- 0 3.0 0.0 28 59
+ 0.303138 0 1 tcp 1540 ------- 0 0.0 3.0 48 79
- 0.303138 0 1 tcp 1540 ------- 0 0.0 3.0 44 75
r 0.303261 1 0 ack 40 ------- 0 3.0 0.0 29 60
+ 0.303261 0 1 tcp 1540 ------- 0 0.0 3.0 49 80
- 0.303261 0 1 tcp 1540 ------- 0 0.0 3.0 45 76
r 0.303384 1 0 ack 40 ------- 0 3.0 0.0 30 61
+ 0.303384 0 1 tcp 1540 ------- 0 0.0 3.0 50 81
- 0.303384 0 1 tcp 1540 ------- 0 0.0 3.0 46 77
- 0.303507 0 1 tcp 1540 ------- 0 0.0 3.0 47 78
- 0.30363 0 1 tcp 1540 ------- 0 0.0 3.0 48 79
- 0.303754 0 1 tcp 1540 ------- 0 0.0 3.0 49 80
- 0.303877 0 1 tcp 1540 ------- 0 0.0 3.0 50 81
r 0.311659 0 1 tcp 1540 ------- 0 0.0 3.0 31 62
+ 0.311659 1 2 tcp 1540 ------- 0 0.0 3.0 31 62
- 0.311659 1 2 tcp 1540 ------- 0 0.0 3.0 31 62
r 0.311782 0 1 tcp 1540 ------- 0 0.0 3.0 32 63
+ 0.311782 1 2 tcp 1540 ------- 0 0.0 3.0 32 63
- 0.311782 1 2 tcp 1540 ------- 0 0.0 3.0 32 63
r 0.311906 0 1 tcp 1540 ------- 0 0.0 3.0 33 64
+ 0.311906 1 2 tcp 1540 ------- 0 0.0 3.0 33 64
- 0.311906 1 2 tcp 1540 ------- 0 0.0 3.0 33 64
r 0.312029 0 1 tcp 1540 ------- 0 0.0 3.0 34 65
+ 0.312029 1 2 tcp 1540 ------- 0 0.0 3.0 34 65
- 0.312029 1 2 tcp 1540 ------- 0 0.0 3.0 34 65
r 0.312152 0 1 tcp 1540 ------- 0 0.0 3.0 35 66
+ 0.312152 1 2 tcp 1540 ------- 0 0.0 3.0 35 66
- 0.312152 1 2 tcp 1540 ------- 0 0.0 3.0 35 66
r 0.312275 0 1 tcp 1540 ------- 0 0.0 3.0 36 67
+ 0.312275 1 2 tcp 1540 ------- 0 0.0 3.0 36 67
- 0.312275 1 2 tcp 1540 ------- 0 0.0 3.0 36 67
r 0.312398 0 1 tcp 1540 ------- 0 0.0 3.0 37 68
+ 0.312398 1 2 tcp 1540 ------- 0 0.0 3.0 37 68
- 0.312398 1 2 tcp 1540 ------- 0 0.0 3.0 37 68
r 0.312522 0 1 tcp 1540 ------- 0 0.0 3.0 38 69
+ 0.312522 1 2 tcp 1540 ------- 0 0.0 3.0 38 69
- 0.312522 1 2 tcp 1540 ------- 0 0.0 3.0 38 69
r 0.312645 0 1 tcp 1540 ------- 0 0.0 3.0 39 70
+ 0.312645 1 2 tcp 1540 ------- 0 0.0 3.0 39 70
- 0.312645 1 2 tcp 1540 ------- 0 0.0 3.0 39 70
r 0.312768 0 1 tcp 1540 ------- 0 0.0 3.0 40 71
+ 0.312768 1 2 tcp 1540 ------- 0 0.0 3.0 40 71
- 0.312768 1 2 tcp 1540 ------- 0 0.0 3.0 40 71
r 0.312891 0 1 tcp 1540 ------- 0 0.0 3.0 41 72
+ 0.312891 1 2 tcp 1540 ------- 0 0.0 3.0 41 72
- 0.312891 1 2 tcp 1540 ------- 0 0.0 3.0 41 72
r 0.313014 0 1 tcp 1540 ------- 0 0.0 3.0 42 73
+ 0.313014 1 2 tcp 1540 ------- 0 0.0 3.0 42 73
- 0.313014 1 2 tcp 1540 ------- 0 0.0 3.0 42 73
r 0.313138 0 1 tcp 1540 ------- 0 0.0 3.0 43 74
+ 0.313138 1 2 tcp 1540 ------- 0 0.0 3.0 43 74
- 0.313138 1 2 tcp 1540 ------- 0 0.0 3.0 43 74
r 0.313261 0 1 tcp 1540 ------- 0 0.0 3.0 44 75
+ 0.313261 1 2 tcp 1540 ------- 0 0.0 3.0 44 75
- 0.313261 1 2 tcp 1540 ------- 0 0.0 3.0 44 75
r 0.313384 0 1 tcp 1540 ------- 0 0.0 3.0 45 76
+ 0.313384 1 2 tcp 1540 ------- 0 0.0 3.0 45 76
- 0.313384 1 2 tcp 1540 ------- 0 0.0 3.0 45 76
r 0.313507 0 1 tcp 1540 ------- 0 0.0 3.0 46 77