V -t * -v 1.0a5 -a 0
A -t * -n 1 -p 0 -o 0x7fffffff -c 30 -a 1
A -t * -h 1 -m 1073741823 -s 0
n -t * -a 4 -s 4 -S UP -v circle -c black -i black
n -t * -a 0 -s 0 -S UP -v circle -c black -i black
n -t * -a 5 -s 5 -S UP -v circle -c black -i black
n -t * -a 1 -s 1 -S UP -v circle -c black -i black
n -t * -a 2 -s 2 -S UP -v circle -c black -i black
n -t * -a 3 -s 3 -S UP -v circle -c black -i black
l -t * -s 1 -d 0 -S UP -r 100000000 -D 0.01 -c black -o right-down
l -t * -s 2 -d 0 -S UP -r 100000000 -D 0.01 -c black -o left-down
l -t * -s 0 -d 5 -S UP -r 100000000 -D 0.01 -c black -o left-down
l -t * -s 0 -d 4 -S UP -r 100000000 -D 0.01 -c black -o right-down
l -t * -s 0 -d 3 -S UP -r 100000000 -D 0.01 -c black -o right-up
+ -t 0 -s 1 -d 0 -p tcp -e 40 -c 0 -i 0 -a 0 -x {1.0 4.0 0 ------- null}
- -t 0 -s 1 -d 0 -p tcp -e 40 -c 0 -i 0 -a 0 -x {1.0 4.0 0 ------- null}
h -t 0 -s 1 -d 0 -p tcp -e 40 -c 0 -i 0 -a 0 -x {1.0 4.0 -1 ------- null}
r -t 0.0100032 -s 1 -d 0 -p tcp -e 40 -c 0 -i 0 -a 0 -x {1.0 4.0 0 ------- null}
+ -t 0.0100032 -s 0 -d 4 -p tcp -e 40 -c 0 -i 0 -a 0 -x {1.0 4.0 0 ------- null}
- -t 0.0100032 -s 0 -d 4 -p tcp -e 40 -c 0 -i 0 -a 0 -x {1.0 4.0 0 ------- null}
h -t 0.0100032 -s 0 -d 4 -p tcp -e 40 -c 0 -i 0 -a 0 -x {1.0 4.0 -1 ------- null}
r -t 0.0200064 -s 0 -d 4 -p tcp -e 40 -c 0 -i 0 -a 0 -x {1.0 4.0 0 ------- null}
+ -t 0.0200064 -s 4 -d 0 -p ack -e 40 -c 0 -i 1 -a 0 -x {4.0 1.0 0 ------- null}
- -t 0.0200064 -s 4 -d 0 -p ack -e 40 -c 0 -i 1 -a 0 -x {4.0 1.0 0 ------- null}
h -t 0.0200064 -s 4 -d 0 -p ack -e 40 -c 0 -i 1 -a 0 -x {4.0 1.0 -1 ------- null}
r -t 0.0300096 -s 4 -d 0 -p ack -e 40 -c 0 -i 1 -a 0 -x {4.0 1.0 0 ------- null}
+ -t 0.0300096 -s 0 -d 1 -p ack -e 40 -c 0 -i 1 -a 0 -x {4.0 1.0 0 ------- null}
- -t 0.0300096 -s 0 -d 1 -p ack -e 40 -c 0 -i 1 -a 0 -x {4.0 1.0 0 ------- null}
h -t 0.0300096 -s 0 -d 1 -p ack -e 40 -c 0 -i 1 -a 0 -x {4.0 1.0 -1 ------- null}
r -t 0.0400128 -s 0 -d 1 -p ack -e 40 -c 0 -i 1 -a 0 -x {4.0 1.0 0 ------- null}
+ -t 0.0400128 -s 1 -d 0 -p tcp -e 1540 -c 0 -i 2 -a 0 -x {1.0 4.0 1 ------- null}
- -t 0.0400128 -s 1 -d 0 -p tcp -e 1540 -c 0 -i 2 -a 0 -x {1.0 4.0 1 ------- null}
h -t 0.0400128 -s 1 -d 0 -p tcp -e 1540 -c 0 -i 2 -a 0 -x {1.0 4.0 -1 ------- null}
+ -t 0.0400128 -s 1 -d 0 -p tcp -e 1540 -c 0 -i 3 -a 0 -x {1.0 4.0 2 ------- null}
- -t 0.040136 -s 1 -d 0 -p tcp -e 1540 -c 0 -i 3 -a 0 -x {1.0 4.0 2 ------- null}
h -t 0.040136 -s 1 -d 0 -p tcp -e 1540 -c 0 -i 3 -a 0 -x {1.0 4.0 -1 ------- null}
r -t 0.050136 -s 1 -d 0 -p tcp -e 1540 -c 0 -i 2 -a 0 -x {1.0 4.0 1 ------- null}
+ -t 0.050136 -s 0 -d 4 -p tcp -e 1540 -c 0 -i 2 -a 0 -x {1.0 4.0 1 ------- null}
- -t 0.050136 -s 0 -d 4 -p tcp -e 1540 -c 0 -i 2 -a 0 -x {1.0 4.0 1 ------- null}
h -t 0.050136 -s 0 -d 4 -p tcp -e 1540 -c 0 -i 2 -a 0 -x {1.0 4.0 -1 ------- null}
r -t 0.0502592 -s 1 -d 0 -p tcp -e 1540 -c 0 -i 3 -a 0 -x {1.0 4.0 2 ------- null}
+ -t 0.0502592 -s 0 -d 4 -p tcp -e 1540 -c 0 -i 3 -a 0 -x {1.0 4.0 2 ------- null}
- -t 0.0502592 -s 0 -d 4 -p tcp -e 1540 -c 0 -i 3 -a 0 -x {1.0 4.0 2 ------- null}
h -t 0.0502592 -s 0 -d 4 -p tcp -e 1540 -c 0 -i 3 -a 0 -x {1.0 4.0 -1 ------- null}
r -t 0.0602592 -s 0 -d 4 -p tcp -e 1540 -c 0 -i 2 -a 0 -x {1.0 4.0 1 ------- null}
+ -t 0.0602592 -s 4 -d 0 -p ack -e 40 -c 0 -i 4 -a 0 -x {4.0 1.0 1 ------- null}
- -t 0.0602592 -s 4 -d 0 -p ack -e 40 -c 0 -i 4 -a 0 -x {4.0 1.0 1 ------- null}
h -t 0.0602592 -s 4 -d 0 -p ack -e 40 -c 0 -i 4 -a 0 -x {4.0 1.0 -1 ------- null}
r -t 0.0603824 -s 0 -d 4 -p tcp -e 1540 -c 0 -i 3 -a 0 -x {1.0 4.0 2 ------- null}
+ -t 0.0603824 -s 4 -d 0 -p ack -e 40 -c 0 -i 5 -a 0 -x {4.0 1.0 2 ------- null}
- -t 0.0603824 -s 4 -d 0 -p ack -e 40 -c 0 -i 5 -a 0 -x {4.0 1.0 2 ------- null}
h -t 0.0603824 -s 4 -d 0 -p ack -e 40 -c 0 -i 5 -a 0 -x {4.0 1.0 -1 ------- null}
r -t 0.0702624 -s 4 -d 0 -p ack -e 40 -c 0 -i 4 -a 0 -x {4.0 1.0 1 ------- null}
+ -t 0.0702624 -s 0 -d 1 -p ack -e 40 -c 0 -i 4 -a 0 -x {4.0 1.0 1 ------- null}
- -t 0.0702624 -s 0 -d 1 -p ack -e 40 -c 0 -i 4 -a 0 -x {4.0 1.0 1 ------- null}
h -t 0.0702624 -s 0 -d 1 -p ack -e 40 -c 0 -i 4 -a 0 -x {4.0 1.0 -1 ------- null}
r -t 0.0703856 -s 4 -d 0 -p ack -e 40 -c 0 -i 5 -a 0 -x {4.0 1.0 2 ------- null}
+ -t 0.0703856 -s 0 -d 1 -p ack -e 40 -c 0 -i 5 -a 0 -x {4.0 1.0 2 ------- null}
- -t 0.0703856 -s 0 -d 1 -p ack -e 40 -c 0 -i 5 -a 0 -x {4.0 1.0 2 ------- null}
h -t 0.0703856 -s 0 -d 1 -p ack -e 40 -c 0 -i 5 -a 0 -x {4.0 1.0 -1 ------- null}
r -t 0.0802656 -s 0 -d 1 -p ack -e 40 -c 0 -i 4 -a 0 -x {4.0 1.0 1 ------- null}
+ -t 0.0802656 -s 1 -d 0 -p tcp -e 1540 -c 0 -i 6 -a 0 -x {1.0 4.0 3 ------- null}
- -t 0.0802656 -s 1 -d 0 -p tcp -e 1540 -c 0 -i 6 -a 0 -x {1.0 4.0 3 ------- null}
h -t 0.0802656 -s 1 -d 0 -p tcp -e 1540 -c 0 -i 6 -a 0 -x {1.0 4.0 -1 ------- null}
+ -t 0.0802656 -s 1 -d 0 -p tcp -e 1540 -c 0 -i 7 -a 0 -x {1.0 4.0 4 ------- null}
r -t 0.0803888 -s 0 -d 1 -p ack -e 40 -c 0 -i 5 -a 0 -x {4.0 1.0 2 ------- null}
+ -t 0.0803888 -s 1 -d 0 -p tcp -e 1540 -c 0 -i 8 -a 0 -x {1.0 4.0 5 ------- null}
+ -t 0.0803888 -s 1 -d 0 -p tcp -e 1540 -c 0 -i 9 -a 0 -x {1.0 4.0 6 ------- null}
- -t 0.0803888 -s 1 -d 0 -p tcp -e 1540 -c 0 -i 7 -a 0 -x {1.0 4.0 4 ------- null}
h -t 0.0803888 -s 1 -d 0 -p tcp -e 1540 -c 0 -i 7 -a 0 -x {1.0 4.0 -1 ------- null}
- -t 0.080512 -s 1 -d 0 -p tcp -e 1540 -c 0 -i 8 -a 0 -x {1.0 4.0 5 ------- null}
h -t 0.080512 -s 1 -d 0 -p tcp -e 1540 -c 0 -i 8 -a 0 -x {1.0 4.0 -1 ------- null}
- -t 0.0806352 -s 1 -d 0 -p tcp -e 1540 -c 0 -i 9 -a 0 -x {1.0 4.0 6 ------- null}
h -t 0.0806352 -s 1 -d 0 -p tcp -e 1540 -c 0 -i 9 -a 0 -x {1.0 4.0 -1 ------- null}
r -t 0.0903888 -s 1 -d 0 -p tcp -e 1540 -c 0 -i 6 -a 0 -x {1.0 4.0 3 ------- null}
+ -t 0.0903888 -s 0 -d 4 -p tcp -e 1540 -c 0 -i 6 -a 0 -x {1.0 4.0 3 ------- null}
- -t 0.0903888 -s 0 -d 4 -p tcp -e 1540 -c 0 -i 6 -a 0 -x {1.0 4.0 3 ------- null}
h -t 0.0903888 -s 0 -d 4 -p tcp -e 1540 -c 0 -i 6 -a 0 -x {1.0 4.0 -1 ------- null}
r -t 0.090512 -s 1 -d 0 -p tcp -e 1540 -c 0 -i 7 -a 0 -x {1.0 4.0 4 ------- null}
+ -t 0.090512 -s 0 -d 4 -p tcp -e 1540 -c 0 -i 7 -a 0 -x {1.0 4.0 4 ------- null}
- -t 0.090512 -s 0 -d 4 -p tcp -e 1540 -c 0 -i 7 -a 0 -x {1.0 4.0 4 ------- null}
h -t 0.090512 -s 0 -d 4 -p tcp -e 1540 -c 0 -i 7 -a 0 -x {1.0 4.0 -1 ------- null}
r -t 0.0906352 -s 1 -d 0 -p tcp -e 1540 -c 0 -i 8 -a 0 -x {1.0 4.0 5 ------- null}
+ -t 0.0906352 -s 0 -d 4 -p tcp -e 1540 -c 0 -i 8 -a 0 -x {1.0 4.0 5 ------- null}
- -t 0.0906352 -s 0 -d 4 -p tcp -e 1540 -c 0 -i 8 -a 0 -x {1.0 4.0 5 ------- null}
h -t 0.0906352 -s 0 -d 4 -p tcp -e 1540 -c 0 -i 8 -a 0 -x {1.0 4.0 -1 ------- null}
r -t 0.0907584 -s 1 -d 0 -p tcp -e 1540 -c 0 -i 9 -a 0 -x {1.0 4.0 6 ------- null}
+ -t 0.0907584 -s 0 -d 4 -p tcp -e 1540 -c 0 -i 9 -a 0 -x {1.0 4.0 6 ------- null}
- -t 0.0907584 -s 0 -d 4 -p tcp -e 1540 -c 0 -i 9 -a 0 -x {1.0 4.0 6 ------- null}
h -t 0.0907584 -s 0 -d 4 -p tcp -e 1540 -c 0 -i 9 -a 0 -x {1.0 4.0 -1 ------- null}
r -t 0.100512 -s 0 -d 4 -p tcp -e 1540 -c 0 -i 6 -a 0 -x {1.0 4.0 3 ------- null}
+ -t 0.100512 -s 4 -d 0 -p ack -e 40 -c 0 -i 10 -a 0 -x {4.0 1.0 3 ------- null}
- -t 0.100512 -s 4 -d 0 -p ack -e 40 -c 0 -i 10 -a 0 -x {4.0 1.0 3 ------- null}
h -t 0.100512 -s 4 -d 0 -p ack -e 40 -c 0 -i 10 -a 0 -x {4.0 1.0 -1 ------- null}
r -t 0.1006352 -s 0 -d 4 -p tcp -e 1540 -c 0 -i 7 -a 0 -x {1.0 4.0 4 ------- null}
+ -t 0.1006352 -s 4 -d 0 -p ack -e 40 -c 0 -i 11 -a 0 -x {4.0 1.0 4 ------- null}
- -t 0.1006352 -s 4 -d 0 -p ack -e 40 -c 0 -i 11 -a 0 -x {4.0 1.0 4 ------- null}
h -t 0.1006352 -s 4 -d 0 -p ack -e 40 -c 0 -i 11 -a 0 -x {4.0 1.0 -1 ------- null}
r -t 0.1007584 -s 0 -d 4 -p tcp -e 1540 -c 0 -i 8 -a 0 -x {1.0 4.0 5 ------- null}
+ -t 0.1007584 -s 4 -d 0 -p ack -e 40 -c 0 -i 12 -a 0 -x {4.0 1.0 5 ------- null}
- -t 0.1007584 -s 4 -d 0 -p ack -e 40 -c 0 -i 12 -a 0 -x {4.0 1.0 5 ------- null}
h -t 0.1007584 -s 4 -d 0 -p ack -e 40 -c 0 -i 12 -a 0 -x {4.0 1.0 -1 ------- null}
r -t 0.1008816 -s 0 -d 4 -p tcp -e 1540 -c 0 -i 9 -a 0 -x {1.0 4.0 6 ------- null}
+ -t 0.1008816 -s 4 -d 0 -p ack -e 40 -c 0 -i 13 -a 0 -x {4.0 1.0 6 ------- null}
- -t 0.1008816 -s 4 -d 0 -p ack -e 40 -c 0 -i 13 -a 0 -x {4.0 1.0 6 ------- null}
h -t 0.1008816 -s 4 -d 0 -p ack -e 40 -c 0 -i 13 -a 0 -x {4.0 1.0 -1 ------- null}
r -t 0.1105152 -s 4 -d 0 -p ack -e 40 -c 0 -i 10 -a 0 -x {4.0 1.0 3 ------- null}
+ -t 0.1105152 -s 0 -d 1 -p ack -e 40 -c 0 -i 10 -a 0 -x {4.0 1.0 3 ------- null}
- -t 0.1105152 -s 0 -d 1 -p ack -e 40 -c 0 -i 10 -a 0 -x {4.0 1.0 3 ------- null}
h -t 0.1105152 -s 0 -d 1 -p ack -e 40 -c 0 -i 10 -a 0 -x {4.0 1.0 -1 ------- null}
r -t 0.1106384 -s 4 -d 0 -p ack -e 40 -c 0 -i 11 -a 0 -x {4.0 1.0 4 ------- null}
+ -t 0.1106384 -s 0 -d 1 -p ack -e 40 -c 0 -i 11 -a 0 -x {4.0 1.0 4 ------- null}
- -t 0.1106384 -s 0 -d 1 -p ack -e 40 -c 0 -i 11 -a 0 -x {4.0 1.0 4 ------- null}
h -t 0.1106384 -s 0 -d 1 -p ack -e 40 -c 0 -i 11 -a 0 -x {4.0 1.0 -1 ------- null}
r -t 0.1107616 -s 4 -d 0 -p ack -e 40 -c 0 -i 12 -a 0 -x {4.0 1.0 5 ------- null}
+ -t 0.1107616 -s 0 -d 1 -p ack -e 40 -c 0 -i 12 -a 0 -x {4.0 1.0 5 ------- null}
- -t 0.1107616 -s 0 -d 1 -p ack -e 40 -c 0 -i 12 -a 0 -x {4.0 1.0 5 ------- null}
h -t 0.1107616 -s 0 -d 1 -p ack -e 40 -c 0 -i 12 -a 0 -x {4.0 1.0 -1 ------- null}
r -t 0.1108848 -s 4 -d 0 -p ack -e 40 -c 0 -i 13 -a 0 -x {4.0 1.0 6 ------- null}
+ -t 0.1108848 -s 0 -d 1 -p ack -e 40 -c 0 -i 13 -a 0 -x {4.0 1.0 6 ------- null}
- -t 0.1108848 -s 0 -d 1 -p ack -e 40 -c 0 -i 13 -a 0 -x {4.0 1.0 6 ------- null}
h -t 0.1108848 -s 0 -d 1 -p ack -e 40 -c 0 -i 13 -a 0 -x {4.0 1.0 -1 ------- null}
r -t 0.1205184 -s 0 -d 1 -p ack -e 40 -c 0 -i 10 -a 0 -x {4.0 1.0 3 ------- null}
+ -t 0.1205184 -s 1 -d 0 -p tcp -e 1540 -c 0 -i 14 -a 0 -x {1.0 4.0 7 ------- null}
- -t 0.1205184 -s 1 -d 0 -p tcp -e 1540 -c 0 -i 14 -a 0 -x {1.0 4.0 7 ------- null}
h -t 0.1205184 -s 1 -d 0 -p tcp -e 1540 -c 0 -i 14 -a 0 -x {1.0 4.0 -1 ------- null}
+ -t 0.1205184 -s 1 -d 0 -p tcp -e 1540 -c 0 -i 15 -a 0 -x {1.0 4.0 8 ------- null}
r -t 0.1206416 -s 0 -d 1 -p ack -e 40 -c 0 -i 11 -a 0 -x {4.0 1.0 4 ------- null}
+ -t 0.1206416 -s 1 -d 0 -p tcp -e 1540 -c 0 -i 16 -a 0 -x {1.0 4.0 9 ------- null}
+ -t 0.1206416 -s 1 -d 0 -p tcp -e 1540 -c 0 -i 17 -a 0 -x {1.0 4.0 10 ------- null}
- -t 0.1206416 -s 1 -d 0 -p tcp -e 1540 -c 0 -i 15 -a 0 -x {1.0 4.0 8 ------- null}
h -t 0.1206416 -s 1 -d 0 -p tcp -e 1540 -c 0 -i 15 -a 0 -x {1.0 4.0 -1 ------- null}
r -t 0.1207648 -s 0 -d 1 -p ack -e 40 -c 0 -i 12 -a 0 -x {4.0 1.0 5 ------- null}
+ -t 0.1207648 -s 1 -d 0 -p tcp -e 1540 -c 0 -i 18 -a 0 -x {1.0 4.0 11 ------- null}
+ -t 0.1207648 -s 1 -d 0 -p tcp -e 1540 -c 0 -i 19 -a 0 -x {1.0 4.0 12 ------- null}
- -t 0.1207648 -s 1 -d 0 -p tcp -e 1540 -c 0 -i 16 -a 0 -x {1.0 4.0 9 ------- null}
h -t 0.1207648 -s 1 -d 0 -p tcp -e 1540 -c 0 -i 16 -a 0 -x {1.0 4.0 -1 ------- null}
r -t 0.120888 -s 0 -d 1 -p ack -e 40 -c 0 -i 13 -a 0 -x {4.0 1.0 6 ------- null}
+ -t 0.120888 -s 1 -d 0 -p tcp -e 1540 -c 0 -i 20 -a 0 -x {1.0 4.0 13 ------- null}
+ -t 0.120888 -s 1 -d 0 -p tcp -e 1540 -c 0 -i 21 -a 0 -x {1.0 4.0 14 ------- null}
- -t 0.120888 -s 1 -d 0 -p tcp -e 1540 -c 0 -i 17 -a 0 -x {1.0 4.0 10 ------- null}
h -t 0.120888 -s 1 -d 0 -p tcp -e 1540 -c 0 -i 17 -a 0 -x {1.0 4.0 -1 ------- null}
- -t 0.1210112 -s 1 -d 0 -p tcp -e 1540 -c 0 -i 18 -a 0 -x {1.0 4.0 11 ------- null}
h -t 0.1210112 -s 1 -d 0 -p tcp -e 1540 -c 0 -i 18 -a 0 -x {1.0 4.0 -1 ------- null}
- -t 0.1211344 -s 1 -d 0 -p tcp -e 1540 -c 0 -i 19 -a 0 -x {1.0 4.0 12 ------- null}
h -t 0.1211344 -s 1 -d 0 -p tcp -e 1540 -c 0 -i 19 -a 0 -x {1.0 4.0 -1 ------- null}
- -t 0.1212576 -s 1 -d 0 -p tcp -e 1540 -c 0 -i 20 -a 0 -x {1.0 4.0 13 ------- null}
h -t 0.1212576 -s 1 -d 0 -p tcp -e 1540 -c 0 -i 20 -a 0 -x {1.0 4.0 -1 ------- null}
- -t 0.1213808 -s 1 -d 0 -p tcp -e 1540 -c 0 -i 21 -a 0 -x {1.0 4.0 14 ------- null}
h -t 0.1213808 -s 1 -d 0 -p tcp -e 1540 -c 0 -i 21 -a 0 -x {1.0 4.0 -1 ------- null}
r -t 0.1306416 -s 1 -d 0 -p tcp -e 1540 -c 0 -i 14 -a 0 -x {1.0 4.0 7 ------- null}
+ -t 0.1306416 -s 0 -d 4 -p tcp -e 1540 -c 0 -i 14 -a 0 -x {1.0 4.0 7 ------- null}
- -t 0.1306416 -s 0 -d 4 -p tcp -e 1540 -c 0 -i 14 -a 0 -x {1.0 4.0 7 ------- null}
h -t 0.1306416 -s 0 -d 4 -p tcp -e 1540 -c 0 -i 14 -a 0 -x {1.0 4.0 -1 ------- null}
r -t 0.1307648 -s 1 -d 0 -p tcp -e 1540 -c 0 -i 15 -a 0 -x {1.0 4.0 8 ------- null}
+ -t 0.1307648 -s 0 -d 4 -p tcp -e 1540 -c 0 -i 15 -a 0 -x {1.0 4.0 8 ------- null}
- -t 0.1307648 -s 0 -d 4 -p tcp -e 1540 -c 0 -i 15 -a 0 -x {1.0 4.0 8 ------- null}
h -t 0.1307648 -s 0 -d 4 -p tcp -e 1540 -c 0 -i 15 -a 0 -x {1.0 4.0 -1 ------- null}
r -t 0.130888 -s 1 -d 0 -p tcp -e 1540 -c 0 -i 16 -a 0 -x {1.0 4.0 9 ------- null}
+ -t 0.130888 -s 0 -d 4 -p tcp -e 1540 -c 0 -i 16 -a 0 -x {1.0 4.0 9 ------- null}
- -t 0.130888 -s 0 -d 4 -p tcp -e 1540 -c 0 -i 16 -a 0 -x {1.0 4.0 9 ------- null}
h -t 0.130888 -s 0 -d 4 -p tcp -e 1540 -c 0 -i 16 -a 0 -x {1.0 4.0 -1 ------- null}
r -t 0.1310112 -s 1 -d 0 -p tcp -e 1540 -c 0 -i 17 -a 0 -x {1.0 4.0 10 ------- null}
+ -t 0.1310112 -s 0 -d 4 -p tcp -e 1540 -c 0 -i 17 -a 0 -x {1.0 4.0 10 ------- null}
- -t 0.1310112 -s 0 -d 4 -p tcp -e 1540 -c 0 -i 17 -a 0 -x {1.0 4.0 10 ------- null}
h -t 0.1310112 -s 0 -d 4 -p tcp -e 1540 -c 0 -i 17 -a 0 -x {1.0 4.0 -1 ------- null}
r -t 0.1311344 -s 1 -d 0 -p tcp -e 1540 -c 0 -i 18 -a 0 -x {1.0 4.0 11 ------- null}
+ -t 0.1311344 -s 0 -d 4 -p tcp -e 1540 -c 0 -i 18 -a 0 -x {1.0 4.0 11 ------- null}
- -t 0.1311344 -s 0 -d 4 -p tcp -e 1540 -c 0 -i 18 -a 0 -x {1.0 4.0 11 ------- null}
h -t 0.1311344 -s 0 -d 4 -p tcp -e 1540 -c 0 -i 18 -a 0 -x {1.0 4.0 -1 ------- null}
r -t 0.1312576 -s 1 -d 0 -p tcp -e 1540 -c 0 -i 19 -a 0 -x {1.0 4.0 12 ------- null}
+ -t 0.1312576 -s 0 -d 4 -p tcp -e 1540 -c 0 -i 19 -a 0 -x {1.0 4.0 12 ------- null}
- -t 0.1312576 -s 0 -d 4 -p tcp -e 1540 -c 0 -i 19 -a 0 -x {1.0 4.0 12 ------- null}
h -t 0.1312576 -s 0 -d 4 -p tcp -e 1540 -c 0 -i 19 -a 0 -x {1.0 4.0 -1 ------- null}
r -t 0.1313808 -s 1 -d 0 -p tcp -e 1540 -c 0 -i 20 -a 0 -x {1.0 4.0 13 ------- null}
+ -t 0.1313808 -s 0 -d 4 -p tcp -e 1540 -c 0 -i 20 -a 0 -x {1.0 4.0 13 ------- null}
- -t 0.1313808 -s 0 -d 4 -p tcp -e 1540 -c 0 -i 20 -a 0 -x {1.0 4.0 13 ------- null}
h -t 0.1313808 -s 0 -d 4 -p tcp -e 1540 -c 0 -i 20 -a 0 -x {1.0 4.0 -1 ------- null}
r -t 0.131504 -s 1 -d 0 -p tcp -e 1540 -c 0 -i 21 -a 0 -x {1.0 4.0 14 ------- null}
+ -t 0.131504 -s 0 -d 4 -p tcp -e 1540 -c 0 -i 21 -a 0 -x {1.0 4.0 14 ------- null}
- -t 0.131504 -s 0 -d 4 -p tcp -e 1540 -c 0 -i 21 -a 0 -x {1.0 4.0 14 ------- null}
h -t 0.131504 -s 0 -d 4 -p tcp -e 1540 -c 0 -i 21 -a 0 -x {1.0 4.0 -1 ------- null}
r -t 0.1407648 -s 0 -d 4 -p tcp -e 1540 -c 0 -i 14 -a 0 -x {1.0 4.0 7 ------- null}
+ -t 0.1407648 -s 4 -d 0 -p ack -e 40 -c 0 -i 22 -a 0 -x {4.0 1.0 7 ------- null}
- -t 0.1407648 -s 4 -d 0 -p ack -e 40 -c 0 -i 22 -a 0 -x {4.0 1.0 7 ------- null}
h -t 0.1407648 -s 4 -d 0 -p ack -e 40 -c 0 -i 22 -a 0 -x {4.0 1.0 -1 ------- null}
r -t 0.140888 -s 0 -d 4 -p tcp -e 1540 -c 0 -i 15 -a 0 -x {1.0 4.0 8 ------- null}
+ -t 0.140888 -s 4 -d 0 -p ack -e 40 -c 0 -i 23 -a 0 -x {4.0 1.0 8 ------- null}
- -t 0.140888 -s 4 -d 0 -p ack -e 40 -c 0 -i 23 -a 0 -x {4.0 1.0 8 ------- null}
h -t 0.140888 -s 4 -d 0 -p ack -e 40 -c 0 -i 23 -a 0 -x {4.0 1.0 -1 ------- null}
r -t 0.1410112 -s 0 -d 4 -p tcp -e 1540 -c 0 -i 16 -a 0 -x {1.0 4.0 9 ------- null}
+ -t 0.1410112 -s 4 -d 0 -p ack -e 40 -c 0 -i 24 -a 0 -x {4.0 1.0 9 ------- null}
- -t 0.1410112 -s 4 -d 0 -p ack -e 40 -c 0 -i 24 -a 0 -x {4.0 1.0 9 ------- null}
h -t 0.1410112 -s 4 -d 0 -p ack -e 40 -c 0 -i 24 -a 0 -x {4.0 1.0 -1 ------- null}
r -t 0.1411344 -s 0 -d 4 -p tcp -e 1540 -c 0 -i 17 -a 0 -x {1.0 4.0 10 ------- null}
+ -t 0.1411344 -s 4 -d 0 -p ack -e 40 -c 0 -i 25 -a 0 -x {4.0 1.0 10 ------- null}
- -t 0.1411344 -s 4 -d 0 -p ack -e 40 -c 0 -i 25 -a 0 -x {4.0 1.0 10 ------- null}
h -t 0.1411344 -s 4 -d 0 -p ack -e 40 -c 0 -i 25 -a 0 -x {4.0 1.0 -1 ------- null}
r -t 0.1412576 -s 0 -d 4 -p tcp -e 1540 -c 0 -i 18 -a 0 -x {1.0 4.0 11 ------- null}
+ -t 0.1412576 -s 4 -d 0 -p ack -e 40 -c 0 -i 26 -a 0 -x {4.0 1.0 11 ------- null}
- -t 0.1412576 -s 4 -d 0 -p ack -e 40 -c 0 -i 26 -a 0 -x {4.0 1.0 11 ------- null}
h -t 0.1412576 -s 4 -d 0 -p ack -e 40 -c 0 -i 26 -a 0 -x {4.0 1.0 -1 ------- null}
r -t 0.1413808 -s 0 -d 4 -p tcp -e 1540 -c 0 -i 19 -a 0 -x {1.0 4.0 12 ------- null}
+ -t 0.1413808 -s 4 -d 0 -p ack -e 40 -c 0 -i 27 -a 0 -x {4.0 1.0 12 ------- null}
- -t 0.1413808 -s 4 -d 0 -p ack -e 40 -c 0 -i 27 -a 0 -x {4.0 1.0 12 ------- null}
h -t 0.1413808 -s 4 -d 0 -p ack -e 40 -c 0 -i 27 -a 0 -x {4.0 1.0 -1 ------- null}
r -t 0.141504 -s 0 -d 4 -p tcp -e 1540 -c 0 -i 20 -a 0 -x {1.0 4.0 13 ------- null}
+ -t 0.141504 -s 4 -d 0 -p ack -e 40 -c 0 -i 28 -a 0 -x {4.0 1.0 13 ------- null}
- -t 0.141504 -s 4 -d 0 -p ack -e 40 -c 0 -i 28 -a 0 -x {4.0 1.0 13 ------- null}
h -t 0.141504 -s 4 -d 0 -p ack -e 40 -c 0 -i 28 -a 0 -x {4.0 1.0 -1 ------- null}
r -t 0.1416272 -s 0 -d 4 -p tcp -e 1540 -c 0 -i 21 -a 0 -x {1.0 4.0 14 ------- null}
+ -t 0.1416272 -s 4 -d 0 -p ack -e 40 -c 0 -i 29 -a 0 -x {4.0 1.0 14 ------- null}
- -t 0.1416272 -s 4 -d 0 -p ack -e 40 -c 0 -i 29 -a 0 -x {4.0 1.0 14 ------- null}
h -t 0.1416272 -s 4 -d 0 -p ack -e 40 -c 0 -i 29 -a 0 -x {4.0 1.0 -1 ------- null}
r -t 0.150768 -s 4 -d 0 -p ack -e 40 -c 0 -i 22 -a 0 -x {4.0 1.0 7 ------- null}
+ -t 0.150768 -s 0 -d 1 -p ack -e 40 -c 0 -i 22 -a 0 -x {4.0 1.0 7 ------- null}
- -t 0.150768 -s 0 -d 1 -p ack -e 40 -c 0 -i 22 -a 0 -x {4.0 1.0 7 ------- null}
h -t 0.150768 -s 0 -d 1 -p ack -e 40 -c 0 -i 22 -a 0 -x {4.0 1.0 -1 ------- null}
r -t 0.1508912 -s 4 -d 0 -p ack -e 40 -c 0 -i 23 -a 0 -x {4.0 1.0 8 ------- null}
+ -t 0.1508912 -s 0 -d 1 -p ack -e 40 -c 0 -i 23 -a 0 -x {4.0 1.0 8 ------- null}
- -t 0.1508912 -s 0 -d 1 -p ack -e 40 -c 0 -i 23 -a 0 -x {4.0 1.0 8 ------- null}
h -t 0.1508912 -s 0 -d 1 -p ack -e 40 -c 0 -i 23 -a 0 -x {4.0 1.0 -1 ------- null}
r -t 0.1510144 -s 4 -d 0 -p ack -e 40 -c 0 -i 24 -a 0 -x {4.0 1.0 9 ------- null}
+ -t 0.1510144 -s 0 -d 1 -p ack -e 40 -c 0 -i 24 -a 0 -x {4.0 1.0 9 ------- null}
- -t 0.1510144 -s 0 -d 1 -p ack -e 40 -c 0 -i 24 -a 0 -x {4.0 1.0 9 ------- null}
h -t 0.1510144 -s 0 -d 1 -p ack -e 40 -c 0 -i 24 -a 0 -x {4.0 1.0 -1 ------- null}
r -t 0.1511376 -s 4 -d 0 -p ack -e 40 -c 0 -i 25 -a 0 -x {4.0 1.0 10 ------- null}
+ -t 0.1511376 -s 0 -d 1 -p ack -e 40 -c 0 -i 25 -a 0 -x {4.0 1.0 10 ------- null}
- -t 0.1511376 -s 0 -d 1 -p ack -e 40 -c 0 -i 25 -a 0 -x {4.0 1.0 10 ------- null}
h -t 0.1511376 -s 0 -d 1 -p ack -e 40 -c 0 -i 25 -a 0 -x {4.0 1.0 -1 ------- null}
r -t 0.1512608 -s 4 -d 0 -p ack -e 40 -c 0 -i 26 -a 0 -x {4.0 1.0 11 ------- null}
+ -t 0.1512608 -s 0 -d 1 -p ack -e 40 -c 0 -i 26 -a 0 -x {4.0 1.0 11 ------- null}
- -t 0.1512608 -s 0 -d 1 -p ack -e 40 -c 0 -i 26 -a 0 -x {4.0 1.0 11 ------- null}
h -t 0.1512608 -s 0 -d 1 -p ack -e 40 -c 0 -i 26 -a 0 -x {4.0 1.0 -1 ------- null}
r -t 0.151384 -s 4 -d 0 -p ack -e 40 -c 0 -i 27 -a 0 -x {4.0 1.0 12 ------- null}
+ -t 0.151384 -s 0 -d 1 -p ack -e 40 -c 0 -i 27 -a 0 -x {4.0 1.0 12 ------- null}
- -t 0.151384 -s 0 -d 1 -p ack -e 40 -c 0 -i 27 -a 0 -x {4.0 1.0 12 ------- null}
h -t 0.151384 -s 0 -d 1 -p ack -e 40 -c 0 -i 27 -a 0 -x {4.0 1.0 -1 ------- null}
r -t 0.1515072 -s 4 -d 0 -p ack -e 40 -c 0 -i 28 -a 0 -x {4.0 1.0 13 ------- null}
+ -t 0.1515072 -s 0 -d 1 -p ack -e 40 -c 0 -i 28 -a 0 -x {4.0 1.0 13 ------- null}
- -t 0.1515072 -s 0 -d 1 -p ack -e 40 -c 0 -i 28 -a 0 -x {4.0 1.0 13 ------- null}
h -t 0.1515072 -s 0 -d 1 -p ack -e 40 -c 0 -i 28 -a 0 -x {4.0 1.0 -1 ------- null}
r -t 0.1516304 -s 4 -d 0 -p ack -e 40 -c 0 -i 29 -a 0 -x {4.0 1.0 14 ------- null}
+ -t 0.1516304 -s 0 -d 1 -p ack -e 40 -c 0 -i 29 -a 0 -x {4.0 1.0 14 ------- null}
- -t 0.1516304 -s 0 -d 1 -p ack -e 40 -c 0 -i 29 -a 0 -x {4.0 1.0 14 ------- null}
h -t 0.1516304 -s 0 -d 1 -p ack -e 40 -c 0 -i 29 -a 0 -x {4.0 1.0 -1 ------- null}
r -t 0.1607712 -s 0 -d 1 -p ack -e 40 -c 0 -i 22 -a 0 -x {4.0 1.0 7 ------- null}
+ -t 0.1607712 -s 1 -d 0 -p tcp -e 1540 -c 0 -i 30 -a 0 -x {1.0 4.0 15 ------- null}
- -t 0.1607712 -s 1 -d 0 -p tcp -e 1540 -c 0 -i 30 -a 0 -x {1.0 4.0 15 ------- null}
h -t 0.1607712 -s 1 -d 0 -p tcp -e 1540 -c 0 -i 30 -a 0 -x {1.0 4.0 -1 ------- null}
+ -t 0.1607712 -s 1 -d 0 -p tcp -e 1540 -c 0 -i 31 -a 0 -x {1.0 4.0 16 ------- null}
r -t 0.1608944 -s 0 -d 1 -p ack -e 40 -c 0 -i 23 -a 0 -x {4.0 1.0 8 ------- null}
+ -t 0.1608944 -s 1 -d 0 -p tcp -e 1540 -c 0 -i 32 -a 0 -x {1.0 4.0 17 ------- null}
+ -t 0.1608944 -s 1 -d 0 -p tcp -e 1540 -c 0 -i 33 -a 0 -x {1.0 4.0 18 ------- null}
- -t 0.1608944 -s 1 -d 0 -p tcp -e 1540 -c 0 -i 31 -a 0 -x {1.0 4.0 16 ------- null}
h -t 0.1608944 -s 1 -d 0 -p tcp -e 1540 -c 0 -i 31 -a 0 -x {1.0 4.0 -1 ------- null}
- -t 0.1610176 -s 1 -d 0 -p tcp -e 1540 -c 0 -i 32 -a 0 -x {1.0 4.0 17 ------- null}
h -t 0.1610176 -s 1 -d 0 -p tcp -e 1540 -c 0 -i 32 -a 0 -x {1.0 4.0 -1 ------- null}
r -t 0.1610176 -s 0 -d 1 -p ack -e 40 -c 0 -i 24 -a 0 -x {4.0 1.0 9 ------- null}
+ -t 0.1610176 -s 1 -d 0 -p tcp -e 1540 -c 0 -i 34 -a 0 -x {1.0 4.0 19 ------- null}
+ -t 0.1610176 -s 1 -d 0 -p tcp -e 1540 -c 0 -i 35 -a 0 -x {1.0 4.0 20 ------- null}
- -t 0.1611408 -s 1 -d 0 -p tcp -e 1540 -c 0 -i 33 -a 0 -x {1.0 4.0 18 ------- null}
h -t 0.1611408 -s 1 -d 0 -p tcp -e 1540 -c 0 -i 33 -a 0 -x {1.0 4.0 -1 ------- null}
r -t 0.1611408 -s 0 -d 1 -p ack -e 40 -c 0 -i 25 -a 0 -x {4.0 1.0 10 ------- null}
+ -t 0.1611408 -s 1 -d 0 -p tcp -e 1540 -c 0 -i 36 -a 0 -x {1.0 4.0 21 ------- null}
+ -t 0.1611408 -s 1 -d 0 -p tcp -e 1540 -c 0 -i 37 -a 0 -x {1.0 4.0 22 ------- null}
- -t 0.161264 -s 1 -d 0 -p tcp -e 1540 -c 0 -i 34 -a 0 -x {1.0 4.0 19 ------- null}
h -t 0.161264 -s 1 -d 0 -p tcp -e 1540 -c 0 -i 34 -a 0 -x {1.0 4.0 -1 ------- null}
r -t 0.161264 -s 0 -d 1 -p ack -e 40 -c 0 -i 26 -a 0 -x {4.0 1.0 11 ------- null}
+ -t 0.161264 -s 1 -d 0 -p tcp -e 1540 -c 0 -i 38 -a 0 -x {1.0 4.0 23 ------- null}
+ -t 0.161264 -s 1 -d 0 -p tcp -e 1540 -c 0 -i 39 -a 0 -x {1.0 4.0 24 ------- null}
- -t 0.1613872 -s 1 -d 0 -p tcp -e 1540 -c 0 -i 35 -a 0 -x {1.0 4.0 20 ------- null}
h -t 0.1613872 -s 1 -d 0 -p tcp -e 1540 -c 0 -i 35 -a 0 -x {1.0 4.0 -1 ------- null}
r -t 0.1613872 -s 0 -d 1 -p ack -e 40 -c 0 -i 27 -a 0 -x {4.0 1.0 12 ------- null}
+ -t 0.1613872 -s 1 -d 0 -p tcp -e 1540 -c 0 -i 40 -a 0 -x {1.0 4.0 25 ------- null}
+ -t 0.1613872 -s 1 -d 0 -p tcp -e 1540 -c 0 -i 41 -a 0 -x {1.0 4.0 26 ------- null}
- -t 0.1615104 -s 1 -d 0 -p tcp -e 1540 -c 0 -i 36 -a 0 -x {1.0 4.0 21 ------- null}
h -t 0.1615104 -s 1 -d 0 -p tcp -e 1540 -c 0 -i 36 -a 0 -x {1.0 4.0 -1 ------- null}
r -t 0.1615104 -s 0 -d 1 -p ack -e 40 -c 0 -i 28 -a 0 -x {4.0 1.0 13 ------- null}
+ -t 0.1615104 -s 1 -d 0 -p tcp -e 1540 -c 0 -i 42 -a 0 -x {1.0 4.0 27 ------- null}
+ -t 0.1615104 -s 1 -d 0 -p tcp -e 1540 -c 0 -i 43 -a 0 -x {1.0 4.0 28 ------- null}
- -t 0.1616336 -s 1 -d 0 -p tcp -e 1540 -c 0 -i 37 -a 0 -x {1.0 4.0 22 ------- null}
h -t 0.1616336 -s 1 -d 0 -p tcp -e 1540 -c 0 -i 37 -a 0 -x {1.0 4.0 -1 ------- null}
r -t 0.1616336 -s 0 -d 1 -p ack -e 40 -c 0 -i 29 -a 0 -x {4.0 1.0 14 ------- null}
+ -t 0.1616336 -s 1 -d 0 -p tcp -e 1540 -c 0 -i 44 -a 0 -x {1.0 4.0 29 ------- null}
+ -t 0.1616336 -s 1 -d 0 -p tcp -e 1540 -c 0 -i 45 -a 0 -x {1.0 4.0 30 ------- null}
- -t 0.1617568 -s 1 -d 0 -p tcp -e 1540 -c 0 -i 38 -a 0 -x {1.0 4.0 23 ------- null}
h -t 0.1617568 -s 1 -d 0 -p tcp -e 1540 -c 0 -i 38 -a 0 -x {1.0 4.0 -1 ------- null}
- -t 0.16188 -s 1 -d 0 -p tcp -e 1540 -c 0 -i 39 -a 0 -x {1.0 4.0 24 ------- null}
h -t 0.16188 -s 1 -d 0 -p tcp -e 1540 -c 0 -i 39 -a 0 -x {1.0 4.0 -1 ------- null}
- -t 0.1620032 -s 1 -d 0 -p tcp -e 1540 -c 0 -i 40 -a 0 -x {1.0 4.0 25 ------- null}
h -t 0.1620032 -s 1 -d 0 -p tcp -e 1540 -c 0 -i 40 -a 0 -x {1.0 4.0 -1 ------- null}
- -t 0.1621264 -s 1 -d 0 -p tcp -e 1540 -c 0 -i 41 -a 0 -x {1.0 4.0 26 ------- null}
h -t 0.1621264 -s 1 -d 0 -p tcp -e 1540 -c 0 -i 41 -a 0 -x {1.0 4.0 -1 ------- null}
- -t 0.1622496 -s 1 -d 0 -p tcp -e 1540 -c 0 -i 42 -a 0 -x {1.0 4.0 27 ------- null}
h -t 0.1622496 -s 1 -d 0 -p tcp -e 1540 -c 0 -i 42 -a 0 -x {1.0 4.0 -1 ------- null}
- -t 0.1623728 -s 1 -d 0 -p tcp -e 1540 -c 0 -i 43 -a 0 -x {1.0 4.0 28 ------- null}
h -t 0.1623728 -s 1 -d 0 -p tcp -e 1540 -c 0 -i 43 -a 0 -x {1.0 4.0 -1 ------- null}
- -t 0.162496 -s 1 -d 0 -p tcp -e 1540 -c 0 -i 44 -a 0 -x {1.0 4.0 29 ------- null}
h -t 0.162496 -s 1 -d 0 -p tcp -e 1540 -c 0 -i 44 -a 0 -x {1.0 4.0 -1 ------- null}
- -t 0.1626192 -s 1 -d 0 -p tcp -e 1540 -c 0 -i 45 -a 0 -x {1.0 4.0 30 ------- null}
h -t 0.1626192 -s 1 -d 0 -p tcp -e 1540 -c 0 -i 45 -a 0 -x {1.0 4.0 -1 ------- null}
r -t 0.1708944 -s 1 -d 0 -p tcp -e 1540 -c 0 -i 30 -a 0 -x {1.0 4.0 15 ------- null}
+ -t 0.1708944 -s 0 -d 4 -p tcp -e 1540 -c 0 -i 30 -a 0 -x {1.0 4.0 15 ------- null}
- -t 0.1708944 -s 0 -d 4 -p tcp -e 1540 -c 0 -i 30 -a 0 -x {1.0 4.0 15 ------- null}
h -t 0.1708944 -s 0 -d 4 -p tcp -e 1540 -c 0 -i 30 -a 0 -x {1.0 4.0 -1 ------- null}
r -t 0.1710176 -s 1 -d 0 -p tcp -e 1540 -c 0 -i 31 -a 0 -x {1.0 4.0 16 ------- null}
+ -t 0.1710176 -s 0 -d 4 -p tcp -e 1540 -c 0 -i 31 -a 0 -x {1.0 4.0 16 ------- null}
- -t 0.1710176 -s 0 -d 4 -p tcp -e 1540 -c 0 -i 31 -a 0 -x {1.0 4.0 16 ------- null}
h -t 0.1710176 -s 0 -d 4 -p tcp -e 1540 -c 0 -i 31 -a 0 -x {1.0 4.0 -1 ------- null}
r -t 0.1711408 -s 1 -d 0 -p tcp -e 1540 -c 0 -i 32 -a 0 -x {1.0 4.0 17 ------- null}
+ -t 0.1711408 -s 0 -d 4 -p tcp -e 1540 -c 0 -i 32 -a 0 -x {1.0 4.0 17 ------- null}
- -t 0.1711408 -s 0 -d 4 -p tcp -e 1540 -c 0 -i 32 -a 0 -x {1.0 4.0 17 ------- null}
h -t 0.1711408 -s 0 -d 4 -p tcp -e 1540 -c 0 -i 32 -a 0 -x {1.0 4.0 -1 ------- null}
r -t 0.171264 -s 1 -d 0 -p tcp -e 1540 -c 0 -i 33 -a 0 -x {1.0 4.0 18 ------- null}
+ -t 0.171264 -s 0 -d 4 -p tcp -e 1540 -c 0 -i 33 -a 0 -x {1.0 4.0 18 ------- null}
- -t 0.171264 -s 0 -d 4 -p tcp -e 1540 -c 0 -i 33 -a 0 -x {1.0 4.0 18 ------- null}
h -t 0.171264 -s 0 -d 4 -p tcp -e 1540 -c 0 -i 33 -a 0 -x {1.0 4.0 -1 ------- null}
r -t 0.1713872 -s 1 -d 0 -p tcp -e 1540 -c 0 -i 34 -a 0 -x {1.0 4.0 19 ------- null}
+ -t 0.1713872 -s 0 -d 4 -p tcp -e 1540 -c 0 -i 34 -a 0 -x {1.0 4.0 19 ------- null}
- -t 0.1713872 -s 0 -d 4 -p tcp -e 1540 -c 0 -i 34 -a 0 -x {1.0 4.0 19 ------- null}
h -t 0.1713872 -s 0 -d 4 -p tcp -e 1540 -c 0 -i 34 -a 0 -x {1.0 4.0 -1 ------- null}
r -t 0.1715104 -s 1 -d 0 -p tcp -e 1540 -c 0 -i 35 -a 0 -x {1.0 4.0 20 ------- null}
+ -t 0.1715104 -s 0 -d 4 -p tcp -e 1540 -c 0 -i 35 -a 0 -x {1.0 4.0 20 ------- null}
- -t 0.1715104 -s 0 -d 4 -p tcp -e 1540 -c 0 -i 35 -a 0 -x {1.0 4.0 20 ------- null}
h -t 0.1715104 -s 0 -d 4 -p tcp -e 1540 -c 0 -i 35 -a 0 -x {1.0 4.0 -1 ------- null}
r -t 0.1716336 -s 1 -d 0 -p tcp -e 1540 -c 0 -i 36 -a 0 -x {1.0 4.0 21 ------- null}
+ -t 0.1716336 -s 0 -d 4 -p tcp -e 1540 -c 0 -i 36 -a 0 -x {1.0 4.0 21 ------- null}
- -t 0.1716336 -s 0 -d 4 -p tcp -e 1540 -c 0 -i 36 -a 0 -x {1.0 4.0 21 ------- null}
h -t 0.1716336 -s 0 -d 4 -p tcp -e 1540 -c 0 -i 36 -a 0 -x {1.0 4.0 -1 ------- null}
r -t 0.1717568 -s 1 -d 0 -p tcp -e 1540 -c 0 -i 37 -a 0 -x {1.0 4.0 22 ------- null}
+ -t 0.1717568 -s 0 -d 4 -p tcp -e 1540 -c 0 -i 37 -a 0 -x {1.0 4.0 22 ------- null}
- -t 0.1717568 -s 0 -d 4 -p tcp -e 1540 -c 0 -i 37 -a 0 -x {1.0 4.0 22 ------- null}
h -t 0.1717568 -s 0 -d 4 -p tcp -e 1540 -c 0 -i 37 -a 0 -x {1.0 4.0 -1 ------- null}
r -t 0.17188 -s 1 -d 0 -p tcp -e 1540 -c 0 -i 38 -a 0 -x {1.0 4.0 23 ------- null}
+ -t 0.17188 -s 0 -d 4 -p tcp -e 1540 -c 0 -i 38 -a 0 -x {1.0 4.0 23 ------- null}
- -t 0.17188 -s 0 -d 4 -p tcp -e 1540 -c 0 -i 38 -a 0 -x {1.0 4.0 23 ------- null}
h -t 0.17188 -s 0 -d 4 -p tcp -e 1540 -c 0 -i 38 -a 0 -x {1.0 4.0 -1 ------- null}
r -t 0.1720032 -s 1 -d 0 -p tcp -e 1540 -c 0 -i 39 -a 0 -x {1.0 4.0 24 ------- null}
+ -t 0.1720032 -s 0 -d 4 -p tcp -e 1540 -c 0 -i 39 -a 0 -x {1.0 4.0 24 ------- null}
- -t 0.1720032 -s 0 -d 4 -p tcp -e 1540 -c 0 -i 39 -a 0 -x {1.0 4.0 24 ------- null}
h -t 0.1720032 -s 0 -d 4 -p tcp -e 1540 -c 0 -i 39 -a 0 -x {1.0 4.0 -1 ------- null}
r -t 0.1721264 -s 1 -d 0 -p tcp -e 1540 -c 0 -i 40 -a 0 -x {1.0 4.0 25 ------- null}
+ -t 0.1721264 -s 0 -d 4 -p tcp -e 1540 -c 0 -i 40 -a 0 -x {1.0 4.0 25 ------- null}
- -t 0.1721264 -s 0 -d 4 -p tcp -e 1540 -c 0 -i 40 -a 0 -x {1.0 4.0 25 ------- null}
h -t 0.1721264 -s 0 -d 4 -p tcp -e 1540 -c 0 -i 40 -a 0 -x {1.0 4.0 -1 ------- null}
r -t 0.1722496 -s 1 -d 0 -p tcp -e 1540 -c 0 -i 41 -a 0 -x {1.0 4.0 26 ------- null}
+ -t 0.1722496 -s 0 -d 4 -p tcp -e 1540 -c 0 -i 41 -a 0 -x {1.0 4.0 26 ------- null}
- -t 0.1722496 -s 0 -d 4 -p tcp -e 1540 -c 0 -i 41 -a 0 -x {1.0 4.0 26 ------- null}
h -t 0.1722496 -s 0 -d 4 -p tcp -e 1540 -c 0 -i 41 -a 0 -x {1.0 4.0 -1 ------- null}
r -t 0.1723728 -s 1 -d 0 -p tcp -e 1540 -c 0 -i 42 -a 0 -x {1.0 4.0 27 ------- null}
+ -t 0.1723728 -s 0 -d 4 -p tcp -e 1540 -c 0 -i 42 -a 0 -x {1.0 4.0 27 ------- null}
- -t 0.1723728 -s 0 -d 4 -p tcp -e 1540 -c 0 -i 42 -a 0 -x {1.0 4.0 27 ------- null}
h -t 0.1723728 -s 0 -d 4 -p tcp -e 1540 -c 0 -i 42 -a 0 -x {1.0 4.0 -1 ------- null}
r -t 0.172496 -s 1 -d 0 -p tcp -e 1540 -c 0 -i 43 -a 0 -x {1.0 4.0 28 ------- null}
+ -t 0.172496 -s 0 -d 4 -p tcp -e 1540 -c 0 -i 43 -a 0 -x {1.0 4.0 28 ------- null}
- -t 0.172496 -s 0 -d 4 -p tcp -e 1540 -c 0 -i 43 -a 0 -x {1.0 4.0 28 ------- null}
h -t 0.172496 -s 0 -d 4 -p tcp -e 1540 -c 0 -i 43 -a 0 -x {1.0 4.0 -1 ------- null}
r -t 0.1726192 -s 1 -d 0 -p tcp -e 1540 -c 0 -i 44 -a 0 -x {1.0 4.0 29 ------- null}
+ -t 0.1726192 -s 0 -d 4 -p tcp -e 1540 -c 0 -i 44 -a 0 -x {1.0 4.0 29 ------- null}
- -t 0.1726192 -s 0 -d 4 -p tcp -e 1540 -c 0 -i 44 -a 0 -x {1.0 4.0 29 ------- null}
h -t 0.1726192 -s 0 -d 4 -p tcp -e 1540 -c 0 -i 44 -a 0 -x {1.0 4.0 -1 ------- null}
r -t 0.1727424 -s 1 -d 0 -p tcp -e 1540 -c 0 -i 45 -a 0 -x {1.0 4.0 30 ------- null}
+ -t 0.1727424 -s 0 -d 4 -p tcp -e 1540 -c 0 -i 45 -a 0 -x {1.0 4.0 30 ------- null}