+ 0 1 0 tcp 40 ------- 0 1.0 4.0 0 0
- 0 1 0 tcp 40 ------- 0 1.0 4.0 0 0
r 0.010003 1 0 tcp 40 ------- 0 1.0 4.0 0 0
+ 0.010003 0 4 tcp 40 ------- 0 1.0 4.0 0 0
- 0.010003 0 4 tcp 40 ------- 0 1.0 4.0 0 0
r 0.020006 0 4 tcp 40 ------- 0 1.0 4.0 0 0
+ 0.020006 4 0 ack 40 ------- 0 4.0 1.0 0 1
- 0.020006 4 0 ack 40 ------- 0 4.0 1.0 0 1
r 0.03001 4 0 ack 40 ------- 0 4.0 1.0 0 1
+ 0.03001 0 1 ack 40 ------- 0 4.0 1.0 0 1
- 0.03001 0 1 ack 40 ------- 0 4.0 1.0 0 1
r 0.040013 0 1 ack 40 ------- 0 4.0 1.0 0 1
+ 0.040013 1 0 tcp 1540 ------- 0 1.0 4.0 1 2
- 0.040013 1 0 tcp 1540 ------- 0 1.0 4.0 1 2
+ 0.040013 1 0 tcp 1540 ------- 0 1.0 4.0 2 3
- 0.040136 1 0 tcp 1540 ------- 0 1.0 4.0 2 3
r 0.050136 1 0 tcp 1540 ------- 0 1.0 4.0 1 2
+ 0.050136 0 4 tcp 1540 ------- 0 1.0 4.0 1 2
- 0.050136 0 4 tcp 1540 ------- 0 1.0 4.0 1 2
r 0.050259 1 0 tcp 1540 ------- 0 1.0 4.0 2 3
+ 0.050259 0 4 tcp 1540 ------- 0 1.0 4.0 2 3
- 0.050259 0 4 tcp 1540 ------- 0 1.0 4.0 2 3
r 0.060259 0 4 tcp 1540 ------- 0 1.0 4.0 1 2
+ 0.060259 4 0 ack 40 ------- 0 4.0 1.0 1 4
- 0.060259 4 0 ack 40 ------- 0 4.0 1.0 1 4
r 0.060382 0 4 tcp 1540 ------- 0 1.0 4.0 2 3
+ 0.060382 4 0 ack 40 ------- 0 4.0 1.0 2 5
- 0.060382 4 0 ack 40 ------- 0 4.0 1.0 2 5
r 0.070262 4 0 ack 40 ------- 0 4.0 1.0 1 4
+ 0.070262 0 1 ack 40 ------- 0 4.0 1.0 1 4
- 0.070262 0 1 ack 40 ------- 0 4.0 1.0 1 4
r 0.070386 4 0 ack 40 ------- 0 4.0 1.0 2 5
+ 0.070386 0 1 ack 40 ------- 0 4.0 1.0 2 5
- 0.070386 0 1 ack 40 ------- 0 4.0 1.0 2 5
r 0.080266 0 1 ack 40 ------- 0 4.0 1.0 1 4
+ 0.080266 1 0 tcp 1540 ------- 0 1.0 4.0 3 6
- 0.080266 1 0 tcp 1540 ------- 0 1.0 4.0 3 6
+ 0.080266 1 0 tcp 1540 ------- 0 1.0 4.0 4 7
r 0.080389 0 1 ack 40 ------- 0 4.0 1.0 2 5
+ 0.080389 1 0 tcp 1540 ------- 0 1.0 4.0 5 8
+ 0.080389 1 0 tcp 1540 ------- 0 1.0 4.0 6 9
- 0.080389 1 0 tcp 1540 ------- 0 1.0 4.0 4 7
- 0.080512 1 0 tcp 1540 ------- 0 1.0 4.0 5 8
- 0.080635 1 0 tcp 1540 ------- 0 1.0 4.0 6 9
r 0.090389 1 0 tcp 1540 ------- 0 1.0 4.0 3 6
+ 0.090389 0 4 tcp 1540 ------- 0 1.0 4.0 3 6
- 0.090389 0 4 tcp 1540 ------- 0 1.0 4.0 3 6
r 0.090512 1 0 tcp 1540 ------- 0 1.0 4.0 4 7
+ 0.090512 0 4 tcp 1540 ------- 0 1.0 4.0 4 7
- 0.090512 0 4 tcp 1540 ------- 0 1.0 4.0 4 7
r 0.090635 1 0 tcp 1540 ------- 0 1.0 4.0 5 8
+ 0.090635 0 4 tcp 1540 ------- 0 1.0 4.0 5 8
- 0.090635 0 4 tcp 1540 ------- 0 1.0 4.0 5 8
r 0.090758 1 0 tcp 1540 ------- 0 1.0 4.0 6 9
+ 0.090758 0 4 tcp 1540 ------- 0 1.0 4.0 6 9
- 0.090758 0 4 tcp 1540 ------- 0 1.0 4.0 6 9
r 0.100512 0 4 tcp 1540 ------- 0 1.0 4.0 3 6
+ 0.100512 4 0 ack 40 ------- 0 4.0 1.0 3 10
- 0.100512 4 0 ack 40 ------- 0 4.0 1.0 3 10
r 0.100635 0 4 tcp 1540 ------- 0 1.0 4.0 4 7
+ 0.100635 4 0 ack 40 ------- 0 4.0 1.0 4 11
- 0.100635 4 0 ack 40 ------- 0 4.0 1.0 4 11
r 0.100758 0 4 tcp 1540 ------- 0 1.0 4.0 5 8
+ 0.100758 4 0 ack 40 ------- 0 4.0 1.0 5 12
- 0.100758 4 0 ack 40 ------- 0 4.0 1.0 5 12
r 0.100882 0 4 tcp 1540 ------- 0 1.0 4.0 6 9
+ 0.100882 4 0 ack 40 ------- 0 4.0 1.0 6 13
- 0.100882 4 0 ack 40 ------- 0 4.0 1.0 6 13
r 0.110515 4 0 ack 40 ------- 0 4.0 1.0 3 10
+ 0.110515 0 1 ack 40 ------- 0 4.0 1.0 3 10
- 0.110515 0 1 ack 40 ------- 0 4.0 1.0 3 10
r 0.110638 4 0 ack 40 ------- 0 4.0 1.0 4 11
+ 0.110638 0 1 ack 40 ------- 0 4.0 1.0 4 11
- 0.110638 0 1 ack 40 ------- 0 4.0 1.0 4 11
r 0.110762 4 0 ack 40 ------- 0 4.0 1.0 5 12
+ 0.110762 0 1 ack 40 ------- 0 4.0 1.0 5 12
- 0.110762 0 1 ack 40 ------- 0 4.0 1.0 5 12
r 0.110885 4 0 ack 40 ------- 0 4.0 1.0 6 13
+ 0.110885 0 1 ack 40 ------- 0 4.0 1.0 6 13
- 0.110885 0 1 ack 40 ------- 0 4.0 1.0 6 13
r 0.120518 0 1 ack 40 ------- 0 4.0 1.0 3 10
+ 0.120518 1 0 tcp 1540 ------- 0 1.0 4.0 7 14
- 0.120518 1 0 tcp 1540 ------- 0 1.0 4.0 7 14
+ 0.120518 1 0 tcp 1540 ------- 0 1.0 4.0 8 15
r 0.120642 0 1 ack 40 ------- 0 4.0 1.0 4 11
+ 0.120642 1 0 tcp 1540 ------- 0 1.0 4.0 9 16
+ 0.120642 1 0 tcp 1540 ------- 0 1.0 4.0 10 17
- 0.120642 1 0 tcp 1540 ------- 0 1.0 4.0 8 15
r 0.120765 0 1 ack 40 ------- 0 4.0 1.0 5 12
+ 0.120765 1 0 tcp 1540 ------- 0 1.0 4.0 11 18
+ 0.120765 1 0 tcp 1540 ------- 0 1.0 4.0 12 19
- 0.120765 1 0 tcp 1540 ------- 0 1.0 4.0 9 16
r 0.120888 0 1 ack 40 ------- 0 4.0 1.0 6 13
+ 0.120888 1 0 tcp 1540 ------- 0 1.0 4.0 13 20
+ 0.120888 1 0 tcp 1540 ------- 0 1.0 4.0 14 21
- 0.120888 1 0 tcp 1540 ------- 0 1.0 4.0 10 17
- 0.121011 1 0 tcp 1540 ------- 0 1.0 4.0 11 18
- 0.121134 1 0 tcp 1540 ------- 0 1.0 4.0 12 19
- 0.121258 1 0 tcp 1540 ------- 0 1.0 4.0 13 20
- 0.121381 1 0 tcp 1540 ------- 0 1.0 4.0 14 21
r 0.130642 1 0 tcp 1540 ------- 0 1.0 4.0 7 14
+ 0.130642 0 4 tcp 1540 ------- 0 1.0 4.0 7 14
- 0.130642 0 4 tcp 1540 ------- 0 1.0 4.0 7 14
r 0.130765 1 0 tcp 1540 ------- 0 1.0 4.0 8 15
+ 0.130765 0 4 tcp 1540 ------- 0 1.0 4.0 8 15
- 0.130765 0 4 tcp 1540 ------- 0 1.0 4.0 8 15
r 0.130888 1 0 tcp 1540 ------- 0 1.0 4.0 9 16
+ 0.130888 0 4 tcp 1540 ------- 0 1.0 4.0 9 16
- 0.130888 0 4 tcp 1540 ------- 0 1.0 4.0 9 16
r 0.131011 1 0 tcp 1540 ------- 0 1.0 4.0 10 17
+ 0.131011 0 4 tcp 1540 ------- 0 1.0 4.0 10 17
- 0.131011 0 4 tcp 1540 ------- 0 1.0 4.0 10 17
r 0.131134 1 0 tcp 1540 ------- 0 1.0 4.0 11 18
+ 0.131134 0 4 tcp 1540 ------- 0 1.0 4.0 11 18
- 0.131134 0 4 tcp 1540 ------- 0 1.0 4.0 11 18
r 0.131258 1 0 tcp 1540 ------- 0 1.0 4.0 12 19
+ 0.131258 0 4 tcp 1540 ------- 0 1.0 4.0 12 19
- 0.131258 0 4 tcp 1540 ------- 0 1.0 4.0 12 19
r 0.131381 1 0 tcp 1540 ------- 0 1.0 4.0 13 20
+ 0.131381 0 4 tcp 1540 ------- 0 1.0 4.0 13 20
- 0.131381 0 4 tcp 1540 ------- 0 1.0 4.0 13 20
r 0.131504 1 0 tcp 1540 ------- 0 1.0 4.0 14 21
+ 0.131504 0 4 tcp 1540 ------- 0 1.0 4.0 14 21
- 0.131504 0 4 tcp 1540 ------- 0 1.0 4.0 14 21
r 0.140765 0 4 tcp 1540 ------- 0 1.0 4.0 7 14
+ 0.140765 4 0 ack 40 ------- 0 4.0 1.0 7 22
- 0.140765 4 0 ack 40 ------- 0 4.0 1.0 7 22
r 0.140888 0 4 tcp 1540 ------- 0 1.0 4.0 8 15
+ 0.140888 4 0 ack 40 ------- 0 4.0 1.0 8 23
- 0.140888 4 0 ack 40 ------- 0 4.0 1.0 8 23
r 0.141011 0 4 tcp 1540 ------- 0 1.0 4.0 9 16
+ 0.141011 4 0 ack 40 ------- 0 4.0 1.0 9 24
- 0.141011 4 0 ack 40 ------- 0 4.0 1.0 9 24
r 0.141134 0 4 tcp 1540 ------- 0 1.0 4.0 10 17
+ 0.141134 4 0 ack 40 ------- 0 4.0 1.0 10 25
- 0.141134 4 0 ack 40 ------- 0 4.0 1.0 10 25
r 0.141258 0 4 tcp 1540 ------- 0 1.0 4.0 11 18
+ 0.141258 4 0 ack 40 ------- 0 4.0 1.0 11 26
- 0.141258 4 0 ack 40 ------- 0 4.0 1.0 11 26
r 0.141381 0 4 tcp 1540 ------- 0 1.0 4.0 12 19
+ 0.141381 4 0 ack 40 ------- 0 4.0 1.0 12 27
- 0.141381 4 0 ack 40 ------- 0 4.0 1.0 12 27
r 0.141504 0 4 tcp 1540 ------- 0 1.0 4.0 13 20
+ 0.141504 4 0 ack 40 ------- 0 4.0 1.0 13 28
- 0.141504 4 0 ack 40 ------- 0 4.0 1.0 13 28
r 0.141627 0 4 tcp 1540 ------- 0 1.0 4.0 14 21
+ 0.141627 4 0 ack 40 ------- 0 4.0 1.0 14 29
- 0.141627 4 0 ack 40 ------- 0 4.0 1.0 14 29
r 0.150768 4 0 ack 40 ------- 0 4.0 1.0 7 22
+ 0.150768 0 1 ack 40 ------- 0 4.0 1.0 7 22
- 0.150768 0 1 ack 40 ------- 0 4.0 1.0 7 22
r 0.150891 4 0 ack 40 ------- 0 4.0 1.0 8 23
+ 0.150891 0 1 ack 40 ------- 0 4.0 1.0 8 23
- 0.150891 0 1 ack 40 ------- 0 4.0 1.0 8 23
r 0.151014 4 0 ack 40 ------- 0 4.0 1.0 9 24
+ 0.151014 0 1 ack 40 ------- 0 4.0 1.0 9 24
- 0.151014 0 1 ack 40 ------- 0 4.0 1.0 9 24
r 0.151138 4 0 ack 40 ------- 0 4.0 1.0 10 25
+ 0.151138 0 1 ack 40 ------- 0 4.0 1.0 10 25
- 0.151138 0 1 ack 40 ------- 0 4.0 1.0 10 25
r 0.151261 4 0 ack 40 ------- 0 4.0 1.0 11 26
+ 0.151261 0 1 ack 40 ------- 0 4.0 1.0 11 26
- 0.151261 0 1 ack 40 ------- 0 4.0 1.0 11 26
r 0.151384 4 0 ack 40 ------- 0 4.0 1.0 12 27
+ 0.151384 0 1 ack 40 ------- 0 4.0 1.0 12 27
- 0.151384 0 1 ack 40 ------- 0 4.0 1.0 12 27
r 0.151507 4 0 ack 40 ------- 0 4.0 1.0 13 28
+ 0.151507 0 1 ack 40 ------- 0 4.0 1.0 13 28
- 0.151507 0 1 ack 40 ------- 0 4.0 1.0 13 28
r 0.15163 4 0 ack 40 ------- 0 4.0 1.0 14 29
+ 0.15163 0 1 ack 40 ------- 0 4.0 1.0 14 29
- 0.15163 0 1 ack 40 ------- 0 4.0 1.0 14 29
r 0.160771 0 1 ack 40 ------- 0 4.0 1.0 7 22
+ 0.160771 1 0 tcp 1540 ------- 0 1.0 4.0 15 30
- 0.160771 1 0 tcp 1540 ------- 0 1.0 4.0 15 30
+ 0.160771 1 0 tcp 1540 ------- 0 1.0 4.0 16 31
r 0.160894 0 1 ack 40 ------- 0 4.0 1.0 8 23
+ 0.160894 1 0 tcp 1540 ------- 0 1.0 4.0 17 32
+ 0.160894 1 0 tcp 1540 ------- 0 1.0 4.0 18 33
- 0.160894 1 0 tcp 1540 ------- 0 1.0 4.0 16 31
- 0.161018 1 0 tcp 1540 ------- 0 1.0 4.0 17 32
r 0.161018 0 1 ack 40 ------- 0 4.0 1.0 9 24
+ 0.161018 1 0 tcp 1540 ------- 0 1.0 4.0 19 34
+ 0.161018 1 0 tcp 1540 ------- 0 1.0 4.0 20 35
- 0.161141 1 0 tcp 1540 ------- 0 1.0 4.0 18 33
r 0.161141 0 1 ack 40 ------- 0 4.0 1.0 10 25
+ 0.161141 1 0 tcp 1540 ------- 0 1.0 4.0 21 36
+ 0.161141 1 0 tcp 1540 ------- 0 1.0 4.0 22 37
- 0.161264 1 0 tcp 1540 ------- 0 1.0 4.0 19 34
r 0.161264 0 1 ack 40 ------- 0 4.0 1.0 11 26
+ 0.161264 1 0 tcp 1540 ------- 0 1.0 4.0 23 38
+ 0.161264 1 0 tcp 1540 ------- 0 1.0 4.0 24 39
- 0.161387 1 0 tcp 1540 ------- 0 1.0 4.0 20 35
r 0.161387 0 1 ack 40 ------- 0 4.0 1.0 12 27
+ 0.161387 1 0 tcp 1540 ------- 0 1.0 4.0 25 40
+ 0.161387 1 0 tcp 1540 ------- 0 1.0 4.0 26 41
- 0.16151 1 0 tcp 1540 ------- 0 1.0 4.0 21 36
r 0.16151 0 1 ack 40 ------- 0 4.0 1.0 13 28
+ 0.16151 1 0 tcp 1540 ------- 0 1.0 4.0 27 42
+ 0.16151 1 0 tcp 1540 ------- 0 1.0 4.0 28 43
- 0.161634 1 0 tcp 1540 ------- 0 1.0 4.0 22 37
r 0.161634 0 1 ack 40 ------- 0 4.0 1.0 14 29
+ 0.161634 1 0 tcp 1540 ------- 0 1.0 4.0 29 44
+ 0.161634 1 0 tcp 1540 ------- 0 1.0 4.0 30 45
- 0.161757 1 0 tcp 1540 ------- 0 1.0 4.0 23 38
- 0.16188 1 0 tcp 1540 ------- 0 1.0 4.0 24 39
- 0.162003 1 0 tcp 1540 ------- 0 1.0 4.0 25 40
- 0.162126 1 0 tcp 1540 ------- 0 1.0 4.0 26 41
- 0.16225 1 0 tcp 1540 ------- 0 1.0 4.0 27 42
- 0.162373 1 0 tcp 1540 ------- 0 1.0 4.0 28 43
- 0.162496 1 0 tcp 1540 ------- 0 1.0 4.0 29 44
- 0.162619 1 0 tcp 1540 ------- 0 1.0 4.0 30 45
r 0.170894 1 0 tcp 1540 ------- 0 1.0 4.0 15 30
+ 0.170894 0 4 tcp 1540 ------- 0 1.0 4.0 15 30
- 0.170894 0 4 tcp 1540 ------- 0 1.0 4.0 15 30
r 0.171018 1 0 tcp 1540 ------- 0 1.0 4.0 16 31
+ 0.171018 0 4 tcp 1540 ------- 0 1.0 4.0 16 31
- 0.171018 0 4 tcp 1540 ------- 0 1.0 4.0 16 31
r 0.171141 1 0 tcp 1540 ------- 0 1.0 4.0 17 32
+ 0.171141 0 4 tcp 1540 ------- 0 1.0 4.0 17 32
- 0.171141 0 4 tcp 1540 ------- 0 1.0 4.0 17 32
r 0.171264 1 0 tcp 1540 ------- 0 1.0 4.0 18 33
+ 0.171264 0 4 tcp 1540 ------- 0 1.0 4.0 18 33
- 0.171264 0 4 tcp 1540 ------- 0 1.0 4.0 18 33
r 0.171387 1 0 tcp 1540 ------- 0 1.0 4.0 19 34
+ 0.171387 0 4 tcp 1540 ------- 0 1.0 4.0 19 34
- 0.171387 0 4 tcp 1540 ------- 0 1.0 4.0 19 34
r 0.17151 1 0 tcp 1540 ------- 0 1.0 4.0 20 35
+ 0.17151 0 4 tcp 1540 ------- 0 1.0 4.0 20 35
- 0.17151 0 4 tcp 1540 ------- 0 1.0 4.0 20 35
r 0.171634 1 0 tcp 1540 ------- 0 1.0 4.0 21 36
+ 0.171634 0 4 tcp 1540 ------- 0 1.0 4.0 21 36
- 0.171634 0 4 tcp 1540 ------- 0 1.0 4.0 21 36
r 0.171757 1 0 tcp 1540 ------- 0 1.0 4.0 22 37
+ 0.171757 0 4 tcp 1540 ------- 0 1.0 4.0 22 37
- 0.171757 0 4 tcp 1540 ------- 0 1.0 4.0 22 37
r 0.17188 1 0 tcp 1540 ------- 0 1.0 4.0 23 38
+ 0.17188 0 4 tcp 1540 ------- 0 1.0 4.0 23 38
- 0.17188 0 4 tcp 1540 ------- 0 1.0 4.0 23 38
r 0.172003 1 0 tcp 1540 ------- 0 1.0 4.0 24 39
+ 0.172003 0 4 tcp 1540 ------- 0 1.0 4.0 24 39
- 0.172003 0 4 tcp 1540 ------- 0 1.0 4.0 24 39
r 0.172126 1 0 tcp 1540 ------- 0 1.0 4.0 25 40
+ 0.172126 0 4 tcp 1540 ------- 0 1.0 4.0 25 40
- 0.172126 0 4 tcp 1540 ------- 0 1.0 4.0 25 40
r 0.17225 1 0 tcp 1540 ------- 0 1.0 4.0 26 41
+ 0.17225 0 4 tcp 1540 ------- 0 1.0 4.0 26 41
- 0.17225 0 4 tcp 1540 ------- 0 1.0 4.0 26 41
r 0.172373 1 0 tcp 1540 ------- 0 1.0 4.0 27 42
+ 0.172373 0 4 tcp 1540 ------- 0 1.0 4.0 27 42
- 0.172373 0 4 tcp 1540 ------- 0 1.0 4.0 27 42
r 0.172496 1 0 tcp 1540 ------- 0 1.0 4.0 28 43
+ 0.172496 0 4 tcp 1540 ------- 0 1.0 4.0 28 43
- 0.172496 0 4 tcp 1540 ------- 0 1.0 4.0 28 43
r 0.172619 1 0 tcp 1540 ------- 0 1.0 4.0 29 44
+ 0.172619 0 4 tcp 1540 ------- 0 1.0 4.0 29 44
- 0.172619 0 4 tcp 1540 ------- 0 1.0 4.0 29 44
r 0.172742 1 0 tcp 1540 ------- 0 1.0 4.0 30 45
+ 0.172742 0 4 tcp 1540 ------- 0 1.0 4.0 30 45
- 0.172742 0 4 tcp 1540 ------- 0 1.0 4.0 30 45
r 0.181018 0 4 tcp 1540 ------- 0 1.0 4.0 15 30
+ 0.181018 4 0 ack 40 ------- 0 4.0 1.0 15 46
- 0.181018 4 0 ack 40 ------- 0 4.0 1.0 15 46
r 0.181141 0 4 tcp 1540 ------- 0 1.0 4.0 16 31
+ 0.181141 4 0 ack 40 ------- 0 4.0 1.0 16 47
- 0.181141 4 0 ack 40 ------- 0 4.0 1.0 16 47
r 0.181264 0 4 tcp 1540 ------- 0 1.0 4.0 17 32
+ 0.181264 4 0 ack 40 ------- 0 4.0 1.0 17 48
- 0.181264 4 0 ack 40 ------- 0 4.0 1.0 17 48
r 0.181387 0 4 tcp 1540 ------- 0 1.0 4.0 18 33
+ 0.181387 4 0 ack 40 ------- 0 4.0 1.0 18 49
- 0.181387 4 0 ack 40 ------- 0 4.0 1.0 18 49
r 0.18151 0 4 tcp 1540 ------- 0 1.0 4.0 19 34
+ 0.18151 4 0 ack 40 ------- 0 4.0 1.0 19 50
- 0.18151 4 0 ack 40 ------- 0 4.0 1.0 19 50
r 0.181634 0 4 tcp 1540 ------- 0 1.0 4.0 20 35
+ 0.181634 4 0 ack 40 ------- 0 4.0 1.0 20 51
- 0.181634 4 0 ack 40 ------- 0 4.0 1.0 20 51
r 0.181757 0 4 tcp 1540 ------- 0 1.0 4.0 21 36
+ 0.181757 4 0 ack 40 ------- 0 4.0 1.0 21 52
- 0.181757 4 0 ack 40 ------- 0 4.0 1.0 21 52
r 0.18188 0 4 tcp 1540 ------- 0 1.0 4.0 22 37
+ 0.18188 4 0 ack 40 ------- 0 4.0 1.0 22 53
- 0.18188 4 0 ack 40 ------- 0 4.0 1.0 22 53
r 0.182003 0 4 tcp 1540 ------- 0 1.0 4.0 23 38
+ 0.182003 4 0 ack 40 ------- 0 4.0 1.0 23 54
- 0.182003 4 0 ack 40 ------- 0 4.0 1.0 23 54
r 0.182126 0 4 tcp 1540 ------- 0 1.0 4.0 24 39
+ 0.182126 4 0 ack 40 ------- 0 4.0 1.0 24 55
- 0.182126 4 0 ack 40 ------- 0 4.0 1.0 24 55
r 0.18225 0 4 tcp 1540 ------- 0 1.0 4.0 25 40
+ 0.18225 4 0 ack 40 ------- 0 4.0 1.0 25 56
- 0.18225 4 0 ack 40 ------- 0 4.0 1.0 25 56
r 0.182373 0 4 tcp 1540 ------- 0 1.0 4.0 26 41
+ 0.182373 4 0 ack 40 ------- 0 4.0 1.0 26 57
- 0.182373 4 0 ack 40 ------- 0 4.0 1.0 26 57
r 0.182496 0 4 tcp 1540 ------- 0 1.0 4.0 27 42
+ 0.182496 4 0 ack 40 ------- 0 4.0 1.0 27 58
- 0.182496 4 0 ack 40 ------- 0 4.0 1.0 27 58
r 0.182619 0 4 tcp 1540 ------- 0 1.0 4.0 28 43
+ 0.182619 4 0 ack 40 ------- 0 4.0 1.0 28 59
- 0.182619 4 0 ack 40 ------- 0 4.0 1.0 28 59
r 0.182742 0 4 tcp 1540 ------- 0 1.0 4.0 29 44
+ 0.182742 4 0 ack 40 ------- 0 4.0 1.0 29 60
- 0.182742 4 0 ack 40 ------- 0 4.0 1.0 29 60
r 0.182866 0 4 tcp 1540 ------- 0 1.0 4.0 30 45
+ 0.182866 4 0 ack 40 ------- 0 4.0 1.0 30 61
- 0.182866 4 0 ack 40 ------- 0 4.0 1.0 30 61
r 0.191021 4 0 ack 40 ------- 0 4.0 1.0 15 46
+ 0.191021 0 1 ack 40 ------- 0 4.0 1.0 15 46
- 0.191021 0 1 ack 40 ------- 0 4.0 1.0 15 46
r 0.191144 4 0 ack 40 ------- 0 4.0 1.0 16 47
+ 0.191144 0 1 ack 40 ------- 0 4.0 1.0 16 47
- 0.191144 0 1 ack 40 ------- 0 4.0 1.0 16 47
r 0.191267 4 0 ack 40 ------- 0 4.0 1.0 17 48
+ 0.191267 0 1 ack 40 ------- 0 4.0 1.0 17 48
- 0.191267 0 1 ack 40 ------- 0 4.0 1.0 17 48
r 0.19139 4 0 ack 40 ------- 0 4.0 1.0 18 49
+ 0.19139 0 1 ack 40 ------- 0 4.0 1.0 18 49
- 0.19139 0 1 ack 40 ------- 0 4.0 1.0 18 49
r 0.191514 4 0 ack 40 ------- 0 4.0 1.0 19 50
+ 0.191514 0 1 ack 40 ------- 0 4.0 1.0 19 50
- 0.191514 0 1 ack 40 ------- 0 4.0 1.0 19 50
r 0.191637 4 0 ack 40 ------- 0 4.0 1.0 20 51
+ 0.191637 0 1 ack 40 ------- 0 4.0 1.0 20 51
- 0.191637 0 1 ack 40 ------- 0 4.0 1.0 20 51
r 0.19176 4 0 ack 40 ------- 0 4.0 1.0 21 52
+ 0.19176 0 1 ack 40 ------- 0 4.0 1.0 21 52
- 0.19176 0 1 ack 40 ------- 0 4.0 1.0 21 52
r 0.191883 4 0 ack 40 ------- 0 4.0 1.0 22 53
+ 0.191883 0 1 ack 40 ------- 0 4.0 1.0 22 53
- 0.191883 0 1 ack 40 ------- 0 4.0 1.0 22 53
r 0.192006 4 0 ack 40 ------- 0 4.0 1.0 23 54
+ 0.192006 0 1 ack 40 ------- 0 4.0 1.0 23 54
- 0.192006 0 1 ack 40 ------- 0 4.0 1.0 23 54
r 0.19213 4 0 ack 40 ------- 0 4.0 1.0 24 55
+ 0.19213 0 1 ack 40 ------- 0 4.0 1.0 24 55
- 0.19213 0 1 ack 40 ------- 0 4.0 1.0 24 55
r 0.192253 4 0 ack 40 ------- 0 4.0 1.0 25 56
+ 0.192253 0 1 ack 40 ------- 0 4.0 1.0 25 56
- 0.192253 0 1 ack 40 ------- 0 4.0 1.0 25 56
r 0.192376 4 0 ack 40 ------- 0 4.0 1.0 26 57
+ 0.192376 0 1 ack 40 ------- 0 4.0 1.0 26 57
- 0.192376 0 1 ack 40 ------- 0 4.0 1.0 26 57
r 0.192499 4 0 ack 40 ------- 0 4.0 1.0 27 58
+ 0.192499 0 1 ack 40 ------- 0 4.0 1.0 27 58
- 0.192499 0 1 ack 40 ------- 0 4.0 1.0 27 58
r 0.192622 4 0 ack 40 ------- 0 4.0 1.0 28 59
+ 0.192622 0 1 ack 40 ------- 0 4.0 1.0 28 59
- 0.192622 0 1 ack 40 ------- 0 4.0 1.0 28 59
r 0.192746 4 0 ack 40 ------- 0 4.0 1.0 29 60
+ 0.192746 0 1 ack 40 ------- 0 4.0 1.0 29 60
- 0.192746 0 1 ack 40 ------- 0 4.0 1.0 29 60
r 0.192869 4 0 ack 40 ------- 0 4.0 1.0 30 61
+ 0.192869 0 1 ack 40 ------- 0 4.0 1.0 30 61
- 0.192869 0 1 ack 40 ------- 0 4.0 1.0 30 61
r 0.201024 0 1 ack 40 ------- 0 4.0 1.0 15 46
+ 0.201024 1 0 tcp 1540 ------- 0 1.0 4.0 31 62
- 0.201024 1 0 tcp 1540 ------- 0 1.0 4.0 31 62
+ 0.201024 1 0 tcp 1540 ------- 0 1.0 4.0 32 63
r 0.201147 0 1 ack 40 ------- 0 4.0 1.0 16 47
+ 0.201147 1 0 tcp 1540 ------- 0 1.0 4.0 33 64
+ 0.201147 1 0 tcp 1540 ------- 0 1.0 4.0 34 65
- 0.201147 1 0 tcp 1540 ------- 0 1.0 4.0 32 63
r 0.20127 0 1 ack 40 ------- 0 4.0 1.0 17 48
+ 0.20127 1 0 tcp 1540 ------- 0 1.0 4.0 35 66
+ 0.20127 1 0 tcp 1540 ------- 0 1.0 4.0 36 67
- 0.20127 1 0 tcp 1540 ------- 0 1.0 4.0 33 64
r 0.201394 0 1 ack 40 ------- 0 4.0 1.0 18 49
+ 0.201394 1 0 tcp 1540 ------- 0 1.0 4.0 37 68
+ 0.201394 1 0 tcp 1540 ------- 0 1.0 4.0 38 69
- 0.201394 1 0 tcp 1540 ------- 0 1.0 4.0 34 65
r 0.201517 0 1 ack 40 ------- 0 4.0 1.0 19 50
+ 0.201517 1 0 tcp 1540 ------- 0 1.0 4.0 39 70
- 0.201517 1 0 tcp 1540 ------- 0 1.0 4.0 35 66
r 0.20164 0 1 ack 40 ------- 0 4.0 1.0 20 51
+ 0.20164 1 0 tcp 1540 ------- 0 1.0 4.0 40 71
- 0.20164 1 0 tcp 1540 ------- 0 1.0 4.0 36 67
r 0.201763 0 1 ack 40 ------- 0 4.0 1.0 21 52
+ 0.201763 1 0 tcp 1540 ------- 0 1.0 4.0 41 72
- 0.201763 1 0 tcp 1540 ------- 0 1.0 4.0 37 68
r 0.201886 0 1 ack 40 ------- 0 4.0 1.0 22 53
+ 0.201886 1 0 tcp 1540 ------- 0 1.0 4.0 42 73
- 0.201886 1 0 tcp 1540 ------- 0 1.0 4.0 38 69
r 0.20201 0 1 ack 40 ------- 0 4.0 1.0 23 54
+ 0.20201 1 0 tcp 1540 ------- 0 1.0 4.0 43 74
- 0.20201 1 0 tcp 1540 ------- 0 1.0 4.0 39 70
r 0.202133 0 1 ack 40 ------- 0 4.0 1.0 24 55
+ 0.202133 1 0 tcp 1540 ------- 0 1.0 4.0 44 75
- 0.202133 1 0 tcp 1540 ------- 0 1.0 4.0 40 71
r 0.202256 0 1 ack 40 ------- 0 4.0 1.0 25 56
+ 0.202256 1 0 tcp 1540 ------- 0 1.0 4.0 45 76
- 0.202256 1 0 tcp 1540 ------- 0 1.0 4.0 41 72
r 0.202379 0 1 ack 40 ------- 0 4.0 1.0 26 57
+ 0.202379 1 0 tcp 1540 ------- 0 1.0 4.0 46 77
- 0.202379 1 0 tcp 1540 ------- 0 1.0 4.0 42 73
r 0.202502 0 1 ack 40 ------- 0 4.0 1.0 27 58
+ 0.202502 1 0 tcp 1540 ------- 0 1.0 4.0 47 78
- 0.202502 1 0 tcp 1540 ------- 0 1.0 4.0 43 74
r 0.202626 0 1 ack 40 ------- 0 4.0 1.0 28 59
+ 0.202626 1 0 tcp 1540 ------- 0 1.0 4.0 48 79
- 0.202626 1 0 tcp 1540 ------- 0 1.0 4.0 44 75
r 0.202749 0 1 ack 40 ------- 0 4.0 1.0 29 60
+ 0.202749 1 0 tcp 1540 ------- 0 1.0 4.0 49 80
- 0.202749 1 0 tcp 1540 ------- 0 1.0 4.0 45 76
r 0.202872 0 1 ack 40 ------- 0 4.0 1.0 30 61
+ 0.202872 1 0 tcp 1540 ------- 0 1.0 4.0 50 81
- 0.202872 1 0 tcp 1540 ------- 0 1.0 4.0 46 77
- 0.202995 1 0 tcp 1540 ------- 0 1.0 4.0 47 78
- 0.203118 1 0 tcp 1540 ------- 0 1.0 4.0 48 79
- 0.203242 1 0 tcp 1540 ------- 0 1.0 4.0 49 80
- 0.203365 1 0 tcp 1540 ------- 0 1.0 4.0 50 81
r 0.211147 1 0 tcp 1540 ------- 0 1.0 4.0 31 62
+ 0.211147 0 4 tcp 1540 ------- 0 1.0 4.0 31 62
- 0.211147 0 4 tcp 1540 ------- 0 1.0 4.0 31 62
r 0.21127 1 0 tcp 1540 ------- 0 1.0 4.0 32 63
+ 0.21127 0 4 tcp 1540 ------- 0 1.0 4.0 32 63
- 0.21127 0 4 tcp 1540 ------- 0 1.0 4.0 32 63
r 0.211394 1 0 tcp 1540 ------- 0 1.0 4.0 33 64
+ 0.211394 0 4 tcp 1540 ------- 0 1.0 4.0 33 64
- 0.211394 0 4 tcp 1540 ------- 0 1.0 4.0 33 64
r 0.211517 1 0 tcp 1540 ------- 0 1.0 4.0 34 65
+ 0.211517 0 4 tcp 1540 ------- 0 1.0 4.0 34 65
- 0.211517 0 4 tcp 1540 ------- 0 1.0 4.0 34 65
r 0.21164 1 0 tcp 1540 ------- 0 1.0 4.0 35 66
+ 0.21164 0 4 tcp 1540 ------- 0 1.0 4.0 35 66
- 0.21164 0 4 tcp 1540 ------- 0 1.0 4.0 35 66
r 0.211763 1 0 tcp 1540 ------- 0 1.0 4.0 36 67
+ 0.211763 0 4 tcp 1540 ------- 0 1.0 4.0 36 67
- 0.211763 0 4 tcp 1540 ------- 0 1.0 4.0 36 67
r 0.211886 1 0 tcp 1540 ------- 0 1.0 4.0 37 68
+ 0.211886 0 4 tcp 1540 ------- 0 1.0 4.0 37 68
- 0.211886 0 4 tcp 1540 ------- 0 1.0 4.0 37 68
r 0.21201 1 0 tcp 1540 ------- 0 1.0 4.0 38 69
+ 0.21201 0 4 tcp 1540 ------- 0 1.0 4.0 38 69
- 0.21201 0 4 tcp 1540 ------- 0 1.0 4.0 38 69
r 0.212133 1 0 tcp 1540 ------- 0 1.0 4.0 39 70
+ 0.212133 0 4 tcp 1540 ------- 0 1.0 4.0 39 70
- 0.212133 0 4 tcp 1540 ------- 0 1.0 4.0 39 70
r 0.212256 1 0 tcp 1540 ------- 0 1.0 4.0 40 71
+ 0.212256 0 4 tcp 1540 ------- 0 1.0 4.0 40 71
- 0.212256 0 4 tcp 1540 ------- 0 1.0 4.0 40 71
r 0.212379 1 0 tcp 1540 ------- 0 1.0 4.0 41 72
+ 0.212379 0 4 tcp 1540 ------- 0 1.0 4.0 41 72
- 0.212379 0 4 tcp 1540 ------- 0 1.0 4.0 41 72
r 0.212502 1 0 tcp 1540 ------- 0 1.0 4.0 42 73
+ 0.212502 0 4 tcp 1540 ------- 0 1.0 4.0 42 73
- 0.212502 0 4 tcp 1540 ------- 0 1.0 4.0 42 73
r 0.212626 1 0 tcp 1540 ------- 0 1.0 4.0 43 74
+ 0.212626 0 4 tcp 1540 ------- 0 1.0 4.0 43 74
- 0.212626 0 4 tcp 1540 ------- 0 1.0 4.0 43 74
r 0.212749 1 0 tcp 1540 ------- 0 1.0 4.0 44 75
+ 0.212749 0 4 tcp 1540 ------- 0 1.0 4.0 44 75
- 0.212749 0 4 tcp 1540 ------- 0 1.0 4.0 44 75
r 0.212872 1 0 tcp 1540 ------- 0 1.0 4.0 45 76
+ 0.212872 0 4 tcp 1540 ------- 0 1.0 4.0 45 76
- 0.212872 0 4 tcp 1540 ------- 0 1.0 4.0 45 76
r 0.212995 1 0 tcp 1540 ------- 0 1.0 4.0 46 77
+ 0.212995 0 4 tcp 1540 ------- 0 1.0 4.0 46 77
- 0.212995 0 4 tcp 1540 ------- 0 1.0 4.0 46 77
r 0.213118 1 0 tcp 1540 ------- 0 1.0 4.0 47 78
+ 0.213118 0 4 tcp 1540 ------- 0 1.0 4.0 47 78
- 0.213118 0 4 tcp 1540 ------- 0 1.0 4.0 47 78
r 0.213242 1 0 tcp 1540 ------- 0 1.0 4.0 48 79
+ 0.213242 0 4 tcp 1540 ------- 0 1.0 4.0 48 79
- 0.213242 0 4 tcp 1540 ------- 0 1.0 4.0 48 79
r 0.213365 1 0 tcp 1540 ------- 0 1.0 4.0 49 80
+ 0.213365 0 4 tcp 1540 ------- 0 1.0 4.0 49 80
- 0.213365 0 4 tcp 1540 ------- 0 1.0 4.0 49 80
r 0.213488 1 0 tcp 1540 ------- 0 1.0 4.0 50 81
+ 0.213488 0 4 tcp 1540 ------- 0 1.0 4.0 50 81
- 0.213488 0 4 tcp 1540 ------- 0 1.0 4.0 50 81
r 0.22127 0 4 tcp 1540 ------- 0 1.0 4.0 31 62
+ 0.22127 4 0 ack 40 ------- 0 4.0 1.0 31 82
- 0.22127 4 0 ack 40 ------- 0 4.0 1.0 31 82
r 0.221394 0 4 tcp 1540 ------- 0 1.0 4.0 32 63
+ 0.221394 4 0 ack 40 ------- 0 4.0 1.0 32 83
- 0.221394 4 0 ack 40 ------- 0 4.0 1.0 32 83
r 0.221517 0 4 tcp 1540 ------- 0 1.0 4.0 33 64
+ 0.221517 4 0 ack 40 ------- 0 4.0 1.0 33 84
- 0.221517 4 0 ack 40 ------- 0 4.0 1.0 33 84
r 0.22164 0 4 tcp 1540 ------- 0 1.0 4.0 34 65
+ 0.22164 4 0 ack 40 ------- 0 4.0 1.0 34 85
- 0.22164 4 0 ack 40 ------- 0 4.0 1.0 34 85
r 0.221763 0 4 tcp 1540 ------- 0 1.0 4.0 35 66
+ 0.221763 4 0 ack 40 ------- 0 4.0 1.0 35 86
- 0.221763 4 0 ack 40 ------- 0 4.0 1.0 35 86
r 0.221886 0 4 tcp 1540 ------- 0 1.0 4.0 36 67
+ 0.221886 4 0 ack 40 ------- 0 4.0 1.0 36 87
- 0.221886 4 0 ack 40 ------- 0 4.0 1.0 36 87
r 0.22201 0 4 tcp 1540 ------- 0 1.0 4.0 37 68
+ 0.22201 4 0 ack 40 ------- 0 4.0 1.0 37 88
- 0.22201 4 0 ack 40 ------- 0 4.0 1.0 37 88
r 0.222133 0 4 tcp 1540 ------- 0 1.0 4.0 38 69
+ 0.222133 4 0 ack 40 ------- 0 4.0 1.0 38 89
- 0.222133 4 0 ack 40 ------- 0 4.0 1.0 38 89
r 0.222256 0 4 tcp 1540 ------- 0 1.0 4.0 39 70
+ 0.222256 4 0 ack 40 ------- 0 4.0 1.0 39 90
- 0.222256 4 0 ack 40 ------- 0 4.0 1.0 39 90
r 0.222379 0 4 tcp 1540 ------- 0 1.0 4.0 40 71
+ 0.222379 4 0 ack 40 ------- 0 4.0 1.0 40 91
- 0.222379 4 0 ack 40 ------- 0 4.0 1.0 40 91
r 0.222502 0 4 tcp 1540 ------- 0 1.0 4.0 41 72
+ 0.222502 4 0 ack 40 ------- 0 4.0 1.0 41 92
- 0.222502 4 0 ack 40 ------- 0 4.0 1.0 41 92
r 0.222626 0 4 tcp 1540 ------- 0 1.0 4.0 42 73
+ 0.222626 4 0 ack 40 ------- 0 4.0 1.0 42 93
- 0.222626 4 0 ack 40 ------- 0 4.0 1.0 42 93
r 0.222749 0 4 tcp 1540 ------- 0 1.0 4.0 43 74
+ 0.222749 4 0 ack 40 ------- 0 4.0 1.0 43 94
- 0.222749 4 0 ack 40 ------- 0 4.0 1.0 43 94
r 0.222872 0 4 tcp 1540 ------- 0 1.0 4.0 44 75
+ 0.222872 4 0 ack 40 ------- 0 4.0 1.0 44 95
- 0.222872 4 0 ack 40 ------- 0 4.0 1.0 44 95
r 0.222995 0 4 tcp 1540 ------- 0 1.0 4.0 45 76
+ 0.222995 4 0 ack 40 ------- 0 4.0 1.0 45 96
- 0.222995 4 0 ack 40 ------- 0 4.0 1.0 45 96
r 0.223118 0 4 tcp 1540 ------- 0 1.0 4.0 46 77
+ 0.223118 4 0 ack 40 ------- 0 4.0 1.0 46 97
- 0.223118 4 0 ack 40 ------- 0 4.0 1.0 46 97
r 0.223242 0 4 tcp 1540 ------- 0 1.0 4.0 47 78
+ 0.223242 4 0 ack 40 ------- 0 4.0 1.0 47 98
- 0.223242 4 0 ack 40 ------- 0 4.0 1.0 47 98
r 0.223365 0 4 tcp 1540 ------- 0 1.0 4.0 48 79
+ 0.223365 4 0 ack 40 ------- 0 4.0 1.0 48 99
- 0.223365 4 0 ack 40 ------- 0 4.0 1.0 48 99
r 0.223488 0 4 tcp 1540 ------- 0 1.0 4.0 49 80
+ 0.223488 4 0 ack 40 ------- 0 4.0 1.0 49 100
- 0.223488 4 0 ack 40 ------- 0 4.0 1.0 49 100
r 0.223611 0 4 tcp 1540 ------- 0 1.0 4.0 50 81
+ 0.223611 4 0 ack 40 ------- 0 4.0 1.0 50 101
- 0.223611 4 0 ack 40 ------- 0 4.0 1.0 50 101
r 0.231274 4 0 ack 40 ------- 0 4.0 1.0 31 82
+ 0.231274 0 1 ack 40 ------- 0 4.0 1.0 31 82
- 0.231274 0 1 ack 40 ------- 0 4.0 1.0 31 82
r 0.231397 4 0 ack 40 ------- 0 4.0 1.0 32 83
+ 0.231397 0 1 ack 40 ------- 0 4.0 1.0 32 83
- 0.231397 0 1 ack 40 ------- 0 4.0 1.0 32 83
r 0.23152 4 0 ack 40 ------- 0 4.0 1.0 33 84
+ 0.23152 0 1 ack 40 ------- 0 4.0 1.0 33 84
- 0.23152 0 1 ack 40 ------- 0 4.0 1.0 33 84
r 0.231643 4 0 ack 40 ------- 0 4.0 1.0 34 85
+ 0.231643 0 1 ack 40 ------- 0 4.0 1.0 34 85
- 0.231643 0 1 ack 40 ------- 0 4.0 1.0 34 85
r 0.231766 4 0 ack 40 ------- 0 4.0 1.0 35 86
+ 0.231766 0 1 ack 40 ------- 0 4.0 1.0 35 86
- 0.231766 0 1 ack 40 ------- 0 4.0 1.0 35 86
r 0.23189 4 0 ack 40 ------- 0 4.0 1.0 36 87
+ 0.23189 0 1 ack 40 ------- 0 4.0 1.0 36 87
- 0.23189 0 1 ack 40 ------- 0 4.0 1.0 36 87
r 0.232013 4 0 ack 40 ------- 0 4.0 1.0 37 88
+ 0.232013 0 1 ack 40 ------- 0 4.0 1.0 37 88
- 0.232013 0 1 ack 40 ------- 0 4.0 1.0 37 88
r 0.232136 4 0 ack 40 ------- 0 4.0 1.0 38 89
+ 0.232136 0 1 ack 40 ------- 0 4.0 1.0 38 89
- 0.232136 0 1 ack 40 ------- 0 4.0 1.0 38 89
r 0.232259 4 0 ack 40 ------- 0 4.0 1.0 39 90
+ 0.232259 0 1 ack 40 ------- 0 4.0 1.0 39 90
- 0.232259 0 1 ack 40 ------- 0 4.0 1.0 39 90
r 0.232382 4 0 ack 40 ------- 0 4.0 1.0 40 91
+ 0.232382 0 1 ack 40 ------- 0 4.0 1.0 40 91
- 0.232382 0 1 ack 40 ------- 0 4.0 1.0 40 91
r 0.232506 4 0 ack 40 ------- 0 4.0 1.0 41 92
+ 0.232506 0 1 ack 40 ------- 0 4.0 1.0 41 92
- 0.232506 0 1 ack 40 ------- 0 4.0 1.0 41 92
r 0.232629 4 0 ack 40 ------- 0 4.0 1.0 42 93
+ 0.232629 0 1 ack 40 ------- 0 4.0 1.0 42 93
- 0.232629 0 1 ack 40 ------- 0 4.0 1.0 42 93
r 0.232752 4 0 ack 40 ------- 0 4.0 1.0 43 94
+ 0.232752 0 1 ack 40 ------- 0 4.0 1.0 43 94
- 0.232752 0 1 ack 40 ------- 0 4.0 1.0 43 94
r 0.232875 4 0 ack 40 ------- 0 4.0 1.0 44 95
+ 0.232875 0 1 ack 40 ------- 0 4.0 1.0 44 95
- 0.232875 0 1 ack 40 ------- 0 4.0 1.0 44 95
r 0.232998 4 0 ack 40 ------- 0 4.0 1.0 45 96
+ 0.232998 0 1 ack 40 ------- 0 4.0 1.0 45 96
- 0.232998 0 1 ack 40 ------- 0 4.0 1.0 45 96
r 0.233122 4 0 ack 40 ------- 0 4.0 1.0 46 97
+ 0.233122 0 1 ack 40 ------- 0 4.0 1.0 46 97
- 0.233122 0 1 ack 40 ------- 0 4.0 1.0 46 97
r 0.233245 4 0 ack 40 ------- 0 4.0 1.0 47 98
+ 0.233245 0 1 ack 40 ------- 0 4.0 1.0 47 98
- 0.233245 0 1 ack 40 ------- 0 4.0 1.0 47 98
r 0.233368 4 0 ack 40 ------- 0 4.0 1.0 48 99
+ 0.233368 0 1 ack 40 ------- 0 4.0 1.0 48 99
- 0.233368 0 1 ack 40 ------- 0 4.0 1.0 48 99
r 0.233491 4 0 ack 40 ------- 0 4.0 1.0 49 100
+ 0.233491 0 1 ack 40 ------- 0 4.0 1.0 49 100
- 0.233491 0 1 ack 40 ------- 0 4.0 1.0 49 100
r 0.233614 4 0 ack 40 ------- 0 4.0 1.0 50 101
+ 0.233614 0 1 ack 40 ------- 0 4.0 1.0 50 101
- 0.233614 0 1 ack 40 ------- 0 4.0 1.0 50 101
r 0.241277 0 1 ack 40 ------- 0 4.0 1.0 31 82
+ 0.241277 1 0 tcp 1540 ------- 0 1.0 4.0 51 102
- 0.241277 1 0 tcp 1540 ------- 0 1.0 4.0 51 102
r 0.2414 0 1 ack 40 ------- 0 4.0 1.0 32 83
+ 0.2414 1 0 tcp 1540 ------- 0 1.0 4.0 52 103
- 0.2414 1 0 tcp 1540 ------- 0 1.0 4.0 52 103
r 0.241523 0 1 ack 40 ------- 0 4.0 1.0 33 84
+ 0.241523 1 0 tcp 1540 ------- 0 1.0 4.0 53 104
- 0.241523 1 0 tcp 1540 ------- 0 1.0 4.0 53 104
r 0.241646 0 1 ack 40 ------- 0 4.0 1.0 34 85
+ 0.241646 1 0 tcp 1540 ------- 0 1.0 4.0 54 105
- 0.241646 1 0 tcp 1540 ------- 0 1.0 4.0 54 105
r 0.24177 0 1 ack 40 ------- 0 4.0 1.0 35 86
+ 0.24177 1 0 tcp 1540 ------- 0 1.0 4.0 55 106
- 0.24177 1 0 tcp 1540 ------- 0 1.0 4.0 55 106
r 0.241893 0 1 ack 40 ------- 0 4.0 1.0 36 87
+ 0.241893 1 0 tcp 1540 ------- 0 1.0 4.0 56 107
- 0.241893 1 0 tcp 1540 ------- 0 1.0 4.0 56 107
r 0.242016 0 1 ack 40 ------- 0 4.0 1.0 37 88
+ 0.242016 1 0 tcp 1540 ------- 0 1.0 4.0 57 108
- 0.242016 1 0 tcp 1540 ------- 0 1.0 4.0 57 108
r 0.242139 0 1 ack 40 ------- 0 4.0 1.0 38 89
+ 0.242139 1 0 tcp 1540 ------- 0 1.0 4.0 58 109
- 0.242139 1 0 tcp 1540 ------- 0 1.0 4.0 58 109
r 0.242262 0 1 ack 40 ------- 0 4.0 1.0 39 90
+ 0.242262 1 0 tcp 1540 ------- 0 1.0 4.0 59 110
- 0.242262 1 0 tcp 1540 ------- 0 1.0 4.0 59 110
r 0.242386 0 1 ack 40 ------- 0 4.0 1.0 40 91
+ 0.242386 1 0 tcp 1540 ------- 0 1.0 4.0 60 111
- 0.242386 1 0 tcp 1540 ------- 0 1.0 4.0 60 111
r 0.242509 0 1 ack 40 ------- 0 4.0 1.0 41 92
+ 0.242509 1 0 tcp 1540 ------- 0 1.0 4.0 61 112
- 0.242509 1 0 tcp 1540 ------- 0 1.0 4.0 61 112
r 0.242632 0 1 ack 40 ------- 0 4.0 1.0 42 93
+ 0.242632 1 0 tcp 1540 ------- 0 1.0 4.0 62 113
- 0.242632 1 0 tcp 1540 ------- 0 1.0 4.0 62 113
r 0.242755 0 1 ack 40 ------- 0 4.0 1.0 43 94
+ 0.242755 1 0 tcp 1540 ------- 0 1.0 4.0 63 114
- 0.242755 1 0 tcp 1540 ------- 0 1.0 4.0 63 114
r 0.242878 0 1 ack 40 ------- 0 4.0 1.0 44 95
+ 0.242878 1 0 tcp 1540 ------- 0 1.0 4.0 64 115
- 0.242878 1 0 tcp 1540 ------- 0 1.0 4.0 64 115
r 0.243002 0 1 ack 40 ------- 0 4.0 1.0 45 96
+ 0.243002 1 0 tcp 1540 ------- 0 1.0 4.0 65 116
- 0.243002 1 0 tcp 1540 ------- 0 1.0 4.0 65 116
r 0.243125 0 1 ack 40 ------- 0 4.0 1.0 46 97
+ 0.243125 1 0 tcp 1540 ------- 0 1.0 4.0 66 117
- 0.243125 1 0 tcp 1540 ------- 0 1.0 4.0 66 117
r 0.243248 0 1 ack 40 ------- 0 4.0 1.0 47 98
+ 0.243248 1 0 tcp 1540 ------- 0 1.0 4.0 67 118