s 0.000000000 _0_ AGT  --- 0 tcp 40 [0 0 0 0] ------- [0:0 19:0 32 0] [0 0] 0 0
r 0.000000000 _0_ RTR  --- 0 tcp 40 [0 0 0 0] ------- [0:0 19:0 32 0] [0 0] 0 0
s 0.000000000 _0_ RTR  --- 0 AODV 48 [0 0 0 0] ------- [0:255 -1:255 30 0] [0x2 1 1 [19 0] [0 4]] (REQUEST)
s 0.000115000 _0_ MAC  --- 0 AODV 106 [0 ffffffff 0 800] ------- [0:255 -1:255 30 0] [0x2 1 1 [19 0] [0 4]] (REQUEST)
r 0.000963431 _1_ MAC  --- 0 AODV 48 [0 ffffffff 0 800] ------- [0:255 -1:255 30 0] [0x2 1 1 [19 0] [0 4]] (REQUEST)
r 0.000963694 _3_ MAC  --- 0 AODV 48 [0 ffffffff 0 800] ------- [0:255 -1:255 30 0] [0x2 1 1 [19 0] [0 4]] (REQUEST)
r 0.000963705 _4_ MAC  --- 0 AODV 48 [0 ffffffff 0 800] ------- [0:255 -1:255 30 0] [0x2 1 1 [19 0] [0 4]] (REQUEST)
r 0.000963753 _2_ MAC  --- 0 AODV 48 [0 ffffffff 0 800] ------- [0:255 -1:255 30 0] [0x2 1 1 [19 0] [0 4]] (REQUEST)
r 0.000988431 _1_ RTR  --- 0 AODV 48 [0 ffffffff 0 800] ------- [0:255 -1:255 30 0] [0x2 1 1 [19 0] [0 4]] (REQUEST)
r 0.000988694 _3_ RTR  --- 0 AODV 48 [0 ffffffff 0 800] ------- [0:255 -1:255 30 0] [0x2 1 1 [19 0] [0 4]] (REQUEST)
r 0.000988705 _4_ RTR  --- 0 AODV 48 [0 ffffffff 0 800] ------- [0:255 -1:255 30 0] [0x2 1 1 [19 0] [0 4]] (REQUEST)
r 0.000988753 _2_ RTR  --- 0 AODV 48 [0 ffffffff 0 800] ------- [0:255 -1:255 30 0] [0x2 1 1 [19 0] [0 4]] (REQUEST)
s 0.001869658 _1_ RTR  --- 0 AODV 48 [0 ffffffff 0 800] ------- [1:255 -1:255 29 0] [0x2 2 1 [19 0] [0 4]] (REQUEST)
s 0.002144658 _1_ MAC  --- 0 AODV 106 [0 ffffffff 1 800] ------- [1:255 -1:255 29 0] [0x2 2 1 [19 0] [0 4]] (REQUEST)
r 0.002992984 _2_ MAC  --- 0 AODV 48 [0 ffffffff 1 800] ------- [1:255 -1:255 29 0] [0x2 2 1 [19 0] [0 4]] (REQUEST)
r 0.002993089 _0_ MAC  --- 0 AODV 48 [0 ffffffff 1 800] ------- [1:255 -1:255 29 0] [0x2 2 1 [19 0] [0 4]] (REQUEST)
r 0.002993148 _3_ MAC  --- 0 AODV 48 [0 ffffffff 1 800] ------- [1:255 -1:255 29 0] [0x2 2 1 [19 0] [0 4]] (REQUEST)
r 0.002993311 _4_ MAC  --- 0 AODV 48 [0 ffffffff 1 800] ------- [1:255 -1:255 29 0] [0x2 2 1 [19 0] [0 4]] (REQUEST)
r 0.002993347 _5_ MAC  --- 0 AODV 48 [0 ffffffff 1 800] ------- [1:255 -1:255 29 0] [0x2 2 1 [19 0] [0 4]] (REQUEST)
r 0.002993460 _6_ MAC  --- 0 AODV 48 [0 ffffffff 1 800] ------- [1:255 -1:255 29 0] [0x2 2 1 [19 0] [0 4]] (REQUEST)
r 0.003017984 _2_ RTR  --- 0 AODV 48 [0 ffffffff 1 800] ------- [1:255 -1:255 29 0] [0x2 2 1 [19 0] [0 4]] (REQUEST)
r 0.003018089 _0_ RTR  --- 0 AODV 48 [0 ffffffff 1 800] ------- [1:255 -1:255 29 0] [0x2 2 1 [19 0] [0 4]] (REQUEST)
r 0.003018148 _3_ RTR  --- 0 AODV 48 [0 ffffffff 1 800] ------- [1:255 -1:255 29 0] [0x2 2 1 [19 0] [0 4]] (REQUEST)
r 0.003018311 _4_ RTR  --- 0 AODV 48 [0 ffffffff 1 800] ------- [1:255 -1:255 29 0] [0x2 2 1 [19 0] [0 4]] (REQUEST)
r 0.003018347 _5_ RTR  --- 0 AODV 48 [0 ffffffff 1 800] ------- [1:255 -1:255 29 0] [0x2 2 1 [19 0] [0 4]] (REQUEST)
r 0.003018460 _6_ RTR  --- 0 AODV 48 [0 ffffffff 1 800] ------- [1:255 -1:255 29 0] [0x2 2 1 [19 0] [0 4]] (REQUEST)
s 0.004118371 _2_ RTR  --- 0 AODV 48 [0 ffffffff 0 800] ------- [2:255 -1:255 29 0] [0x2 2 1 [19 0] [0 4]] (REQUEST)
s 0.004433371 _2_ MAC  --- 0 AODV 106 [0 ffffffff 2 800] ------- [2:255 -1:255 29 0] [0x2 2 1 [19 0] [0 4]] (REQUEST)
r 0.005281696 _1_ MAC  --- 0 AODV 48 [0 ffffffff 2 800] ------- [2:255 -1:255 29 0] [0x2 2 1 [19 0] [0 4]] (REQUEST)
r 0.005281849 _5_ MAC  --- 0 AODV 48 [0 ffffffff 2 800] ------- [2:255 -1:255 29 0] [0x2 2 1 [19 0] [0 4]] (REQUEST)
r 0.005281861 _3_ MAC  --- 0 AODV 48 [0 ffffffff 2 800] ------- [2:255 -1:255 29 0] [0x2 2 1 [19 0] [0 4]] (REQUEST)
r 0.005282004 _8_ MAC  --- 0 AODV 48 [0 ffffffff 2 800] ------- [2:255 -1:255 29 0] [0x2 2 1 [19 0] [0 4]] (REQUEST)
r 0.005282099 _4_ MAC  --- 0 AODV 48 [0 ffffffff 2 800] ------- [2:255 -1:255 29 0] [0x2 2 1 [19 0] [0 4]] (REQUEST)
r 0.005282123 _0_ MAC  --- 0 AODV 48 [0 ffffffff 2 800] ------- [2:255 -1:255 29 0] [0x2 2 1 [19 0] [0 4]] (REQUEST)
r 0.005282124 _6_ MAC  --- 0 AODV 48 [0 ffffffff 2 800] ------- [2:255 -1:255 29 0] [0x2 2 1 [19 0] [0 4]] (REQUEST)
r 0.005282127 _9_ MAC  --- 0 AODV 48 [0 ffffffff 2 800] ------- [2:255 -1:255 29 0] [0x2 2 1 [19 0] [0 4]] (REQUEST)
r 0.005306696 _1_ RTR  --- 0 AODV 48 [0 ffffffff 2 800] ------- [2:255 -1:255 29 0] [0x2 2 1 [19 0] [0 4]] (REQUEST)
r 0.005306849 _5_ RTR  --- 0 AODV 48 [0 ffffffff 2 800] ------- [2:255 -1:255 29 0] [0x2 2 1 [19 0] [0 4]] (REQUEST)
r 0.005306861 _3_ RTR  --- 0 AODV 48 [0 ffffffff 2 800] ------- [2:255 -1:255 29 0] [0x2 2 1 [19 0] [0 4]] (REQUEST)
r 0.005307004 _8_ RTR  --- 0 AODV 48 [0 ffffffff 2 800] ------- [2:255 -1:255 29 0] [0x2 2 1 [19 0] [0 4]] (REQUEST)
r 0.005307099 _4_ RTR  --- 0 AODV 48 [0 ffffffff 2 800] ------- [2:255 -1:255 29 0] [0x2 2 1 [19 0] [0 4]] (REQUEST)
r 0.005307123 _0_ RTR  --- 0 AODV 48 [0 ffffffff 2 800] ------- [2:255 -1:255 29 0] [0x2 2 1 [19 0] [0 4]] (REQUEST)
r 0.005307124 _6_ RTR  --- 0 AODV 48 [0 ffffffff 2 800] ------- [2:255 -1:255 29 0] [0x2 2 1 [19 0] [0 4]] (REQUEST)
r 0.005307127 _9_ RTR  --- 0 AODV 48 [0 ffffffff 2 800] ------- [2:255 -1:255 29 0] [0x2 2 1 [19 0] [0 4]] (REQUEST)
s 0.005400428 _3_ RTR  --- 0 AODV 48 [0 ffffffff 0 800] ------- [3:255 -1:255 29 0] [0x2 2 1 [19 0] [0 4]] (REQUEST)
s 0.005734950 _8_ RTR  --- 0 AODV 48 [0 ffffffff 2 800] ------- [8:255 -1:255 28 0] [0x2 3 1 [19 0] [0 4]] (REQUEST)
s 0.005835428 _3_ MAC  --- 0 AODV 106 [0 ffffffff 3 800] ------- [3:255 -1:255 29 0] [0x2 2 1 [19 0] [0 4]] (REQUEST)
s 0.006109250 _6_ RTR  --- 0 AODV 48 [0 ffffffff 1 800] ------- [6:255 -1:255 28 0] [0x2 3 1 [19 0] [0 4]] (REQUEST)
r 0.006683677 _4_ MAC  --- 0 AODV 48 [0 ffffffff 3 800] ------- [3:255 -1:255 29 0] [0x2 2 1 [19 0] [0 4]] (REQUEST)
r 0.006683739 _6_ MAC  --- 0 AODV 48 [0 ffffffff 3 800] ------- [3:255 -1:255 29 0] [0x2 2 1 [19 0] [0 4]] (REQUEST)
r 0.006683806 _5_ MAC  --- 0 AODV 48 [0 ffffffff 3 800] ------- [3:255 -1:255 29 0] [0x2 2 1 [19 0] [0 4]] (REQUEST)
r 0.006683918 _2_ MAC  --- 0 AODV 48 [0 ffffffff 3 800] ------- [3:255 -1:255 29 0] [0x2 2 1 [19 0] [0 4]] (REQUEST)
r 0.006683918 _1_ MAC  --- 0 AODV 48 [0 ffffffff 3 800] ------- [3:255 -1:255 29 0] [0x2 2 1 [19 0] [0 4]] (REQUEST)
r 0.006684012 _8_ MAC  --- 0 AODV 48 [0 ffffffff 3 800] ------- [3:255 -1:255 29 0] [0x2 2 1 [19 0] [0 4]] (REQUEST)
r 0.006684058 _7_ MAC  --- 0 AODV 48 [0 ffffffff 3 800] ------- [3:255 -1:255 29 0] [0x2 2 1 [19 0] [0 4]] (REQUEST)
r 0.006684121 _0_ MAC  --- 0 AODV 48 [0 ffffffff 3 800] ------- [3:255 -1:255 29 0] [0x2 2 1 [19 0] [0 4]] (REQUEST)
r 0.006708677 _4_ RTR  --- 0 AODV 48 [0 ffffffff 3 800] ------- [3:255 -1:255 29 0] [0x2 2 1 [19 0] [0 4]] (REQUEST)
r 0.006708739 _6_ RTR  --- 0 AODV 48 [0 ffffffff 3 800] ------- [3:255 -1:255 29 0] [0x2 2 1 [19 0] [0 4]] (REQUEST)
r 0.006708806 _5_ RTR  --- 0 AODV 48 [0 ffffffff 3 800] ------- [3:255 -1:255 29 0] [0x2 2 1 [19 0] [0 4]] (REQUEST)
r 0.006708918 _2_ RTR  --- 0 AODV 48 [0 ffffffff 3 800] ------- [3:255 -1:255 29 0] [0x2 2 1 [19 0] [0 4]] (REQUEST)
r 0.006708918 _1_ RTR  --- 0 AODV 48 [0 ffffffff 3 800] ------- [3:255 -1:255 29 0] [0x2 2 1 [19 0] [0 4]] (REQUEST)
r 0.006709012 _8_ RTR  --- 0 AODV 48 [0 ffffffff 3 800] ------- [3:255 -1:255 29 0] [0x2 2 1 [19 0] [0 4]] (REQUEST)
r 0.006709058 _7_ RTR  --- 0 AODV 48 [0 ffffffff 3 800] ------- [3:255 -1:255 29 0] [0x2 2 1 [19 0] [0 4]] (REQUEST)
r 0.006709121 _0_ RTR  --- 0 AODV 48 [0 ffffffff 3 800] ------- [3:255 -1:255 29 0] [0x2 2 1 [19 0] [0 4]] (REQUEST)
s 0.006893739 _6_ MAC  --- 0 AODV 106 [0 ffffffff 6 800] ------- [6:255 -1:255 28 0] [0x2 3 1 [19 0] [0 4]] (REQUEST)
s 0.007650447 _7_ RTR  --- 0 AODV 48 [0 ffffffff 3 800] ------- [7:255 -1:255 28 0] [0x2 3 1 [19 0] [0 4]] (REQUEST)
r 0.007742033 _4_ MAC  --- 0 AODV 48 [0 ffffffff 6 800] ------- [6:255 -1:255 28 0] [0x2 3 1 [19 0] [0 4]] (REQUEST)
r 0.007742051 _3_ MAC  --- 0 AODV 48 [0 ffffffff 6 800] ------- [6:255 -1:255 28 0] [0x2 3 1 [19 0] [0 4]] (REQUEST)
r 0.007742139 _7_ MAC  --- 0 AODV 48 [0 ffffffff 6 800] ------- [6:255 -1:255 28 0] [0x2 3 1 [19 0] [0 4]] (REQUEST)
r 0.007742156 _5_ MAC  --- 0 AODV 48 [0 ffffffff 6 800] ------- [6:255 -1:255 28 0] [0x2 3 1 [19 0] [0 4]] (REQUEST)
r 0.007742284 _8_ MAC  --- 0 AODV 48 [0 ffffffff 6 800] ------- [6:255 -1:255 28 0] [0x2 3 1 [19 0] [0 4]] (REQUEST)
r 0.007742402 _11_ MAC  --- 0 AODV 48 [0 ffffffff 6 800] ------- [6:255 -1:255 28 0] [0x2 3 1 [19 0] [0 4]] (REQUEST)
r 0.007742493 _2_ MAC  --- 0 AODV 48 [0 ffffffff 6 800] ------- [6:255 -1:255 28 0] [0x2 3 1 [19 0] [0 4]] (REQUEST)
r 0.007742541 _1_ MAC  --- 0 AODV 48 [0 ffffffff 6 800] ------- [6:255 -1:255 28 0] [0x2 3 1 [19 0] [0 4]] (REQUEST)
r 0.007767033 _4_ RTR  --- 0 AODV 48 [0 ffffffff 6 800] ------- [6:255 -1:255 28 0] [0x2 3 1 [19 0] [0 4]] (REQUEST)
r 0.007767051 _3_ RTR  --- 0 AODV 48 [0 ffffffff 6 800] ------- [6:255 -1:255 28 0] [0x2 3 1 [19 0] [0 4]] (REQUEST)
r 0.007767139 _7_ RTR  --- 0 AODV 48 [0 ffffffff 6 800] ------- [6:255 -1:255 28 0] [0x2 3 1 [19 0] [0 4]] (REQUEST)
r 0.007767156 _5_ RTR  --- 0 AODV 48 [0 ffffffff 6 800] ------- [6:255 -1:255 28 0] [0x2 3 1 [19 0] [0 4]] (REQUEST)
r 0.007767284 _8_ RTR  --- 0 AODV 48 [0 ffffffff 6 800] ------- [6:255 -1:255 28 0] [0x2 3 1 [19 0] [0 4]] (REQUEST)
r 0.007767402 _11_ RTR  --- 0 AODV 48 [0 ffffffff 6 800] ------- [6:255 -1:255 28 0] [0x2 3 1 [19 0] [0 4]] (REQUEST)
r 0.007767493 _2_ RTR  --- 0 AODV 48 [0 ffffffff 6 800] ------- [6:255 -1:255 28 0] [0x2 3 1 [19 0] [0 4]] (REQUEST)
r 0.007767541 _1_ RTR  --- 0 AODV 48 [0 ffffffff 6 800] ------- [6:255 -1:255 28 0] [0x2 3 1 [19 0] [0 4]] (REQUEST)
s 0.007852284 _8_ MAC  --- 0 AODV 106 [0 ffffffff 8 800] ------- [8:255 -1:255 28 0] [0x2 3 1 [19 0] [0 4]] (REQUEST)
r 0.008700496 _5_ MAC  --- 0 AODV 48 [0 ffffffff 8 800] ------- [8:255 -1:255 28 0] [0x2 3 1 [19 0] [0 4]] (REQUEST)
r 0.008700642 _9_ MAC  --- 0 AODV 48 [0 ffffffff 8 800] ------- [8:255 -1:255 28 0] [0x2 3 1 [19 0] [0 4]] (REQUEST)
r 0.008700657 _7_ MAC  --- 0 AODV 48 [0 ffffffff 8 800] ------- [8:255 -1:255 28 0] [0x2 3 1 [19 0] [0 4]] (REQUEST)
r 0.008700829 _6_ MAC  --- 0 AODV 48 [0 ffffffff 8 800] ------- [8:255 -1:255 28 0] [0x2 3 1 [19 0] [0 4]] (REQUEST)
r 0.008700868 _3_ MAC  --- 0 AODV 48 [0 ffffffff 8 800] ------- [8:255 -1:255 28 0] [0x2 3 1 [19 0] [0 4]] (REQUEST)
r 0.008700918 _2_ MAC  --- 0 AODV 48 [0 ffffffff 8 800] ------- [8:255 -1:255 28 0] [0x2 3 1 [19 0] [0 4]] (REQUEST)
r 0.008700947 _10_ MAC  --- 0 AODV 48 [0 ffffffff 8 800] ------- [8:255 -1:255 28 0] [0x2 3 1 [19 0] [0 4]] (REQUEST)
r 0.008700992 _11_ MAC  --- 0 AODV 48 [0 ffffffff 8 800] ------- [8:255 -1:255 28 0] [0x2 3 1 [19 0] [0 4]] (REQUEST)
r 0.008701040 _12_ MAC  --- 0 AODV 48 [0 ffffffff 8 800] ------- [8:255 -1:255 28 0] [0x2 3 1 [19 0] [0 4]] (REQUEST)
r 0.008701049 _4_ MAC  --- 0 AODV 48 [0 ffffffff 8 800] ------- [8:255 -1:255 28 0] [0x2 3 1 [19 0] [0 4]] (REQUEST)
r 0.008725496 _5_ RTR  --- 0 AODV 48 [0 ffffffff 8 800] ------- [8:255 -1:255 28 0] [0x2 3 1 [19 0] [0 4]] (REQUEST)
r 0.008725642 _9_ RTR  --- 0 AODV 48 [0 ffffffff 8 800] ------- [8:255 -1:255 28 0] [0x2 3 1 [19 0] [0 4]] (REQUEST)
r 0.008725657 _7_ RTR  --- 0 AODV 48 [0 ffffffff 8 800] ------- [8:255 -1:255 28 0] [0x2 3 1 [19 0] [0 4]] (REQUEST)
r 0.008725829 _6_ RTR  --- 0 AODV 48 [0 ffffffff 8 800] ------- [8:255 -1:255 28 0] [0x2 3 1 [19 0] [0 4]] (REQUEST)
r 0.008725868 _3_ RTR  --- 0 AODV 48 [0 ffffffff 8 800] ------- [8:255 -1:255 28 0] [0x2 3 1 [19 0] [0 4]] (REQUEST)
r 0.008725918 _2_ RTR  --- 0 AODV 48 [0 ffffffff 8 800] ------- [8:255 -1:255 28 0] [0x2 3 1 [19 0] [0 4]] (REQUEST)
r 0.008725947 _10_ RTR  --- 0 AODV 48 [0 ffffffff 8 800] ------- [8:255 -1:255 28 0] [0x2 3 1 [19 0] [0 4]] (REQUEST)
r 0.008725992 _11_ RTR  --- 0 AODV 48 [0 ffffffff 8 800] ------- [8:255 -1:255 28 0] [0x2 3 1 [19 0] [0 4]] (REQUEST)
r 0.008726040 _12_ RTR  --- 0 AODV 48 [0 ffffffff 8 800] ------- [8:255 -1:255 28 0] [0x2 3 1 [19 0] [0 4]] (REQUEST)
r 0.008726049 _4_ RTR  --- 0 AODV 48 [0 ffffffff 8 800] ------- [8:255 -1:255 28 0] [0x2 3 1 [19 0] [0 4]] (REQUEST)
s 0.008980260 _4_ RTR  --- 0 AODV 48 [0 ffffffff 0 800] ------- [4:255 -1:255 29 0] [0x2 2 1 [19 0] [0 4]] (REQUEST)
s 0.009010657 _7_ MAC  --- 0 AODV 106 [0 ffffffff 7 800] ------- [7:255 -1:255 28 0] [0x2 3 1 [19 0] [0 4]] (REQUEST)
s 0.009406999 _5_ RTR  --- 0 AODV 48 [0 ffffffff 1 800] ------- [5:255 -1:255 28 0] [0x2 3 1 [19 0] [0 4]] (REQUEST)
r 0.009859018 _11_ MAC  --- 0 AODV 48 [0 ffffffff 7 800] ------- [7:255 -1:255 28 0] [0x2 3 1 [19 0] [0 4]] (REQUEST)
r 0.009859031 _8_ MAC  --- 0 AODV 48 [0 ffffffff 7 800] ------- [7:255 -1:255 28 0] [0x2 3 1 [19 0] [0 4]] (REQUEST)
r 0.009859057 _6_ MAC  --- 0 AODV 48 [0 ffffffff 7 800] ------- [7:255 -1:255 28 0] [0x2 3 1 [19 0] [0 4]] (REQUEST)
r 0.009859088 _5_ MAC  --- 0 AODV 48 [0 ffffffff 7 800] ------- [7:255 -1:255 28 0] [0x2 3 1 [19 0] [0 4]] (REQUEST)
r 0.009859288 _3_ MAC  --- 0 AODV 48 [0 ffffffff 7 800] ------- [7:255 -1:255 28 0] [0x2 3 1 [19 0] [0 4]] (REQUEST)
r 0.009859341 _9_ MAC  --- 0 AODV 48 [0 ffffffff 7 800] ------- [7:255 -1:255 28 0] [0x2 3 1 [19 0] [0 4]] (REQUEST)
r 0.009859349 _4_ MAC  --- 0 AODV 48 [0 ffffffff 7 800] ------- [7:255 -1:255 28 0] [0x2 3 1 [19 0] [0 4]] (REQUEST)
r 0.009859381 _12_ MAC  --- 0 AODV 48 [0 ffffffff 7 800] ------- [7:255 -1:255 28 0] [0x2 3 1 [19 0] [0 4]] (REQUEST)
r 0.009859465 _14_ MAC  --- 0 AODV 48 [0 ffffffff 7 800] ------- [7:255 -1:255 28 0] [0x2 3 1 [19 0] [0 4]] (REQUEST)
r 0.009884018 _11_ RTR  --- 0 AODV 48 [0 ffffffff 7 800] ------- [7:255 -1:255 28 0] [0x2 3 1 [19 0] [0 4]] (REQUEST)
r 0.009884031 _8_ RTR  --- 0 AODV 48 [0 ffffffff 7 800] ------- [7:255 -1:255 28 0] [0x2 3 1 [19 0] [0 4]] (REQUEST)
r 0.009884057 _6_ RTR  --- 0 AODV 48 [0 ffffffff 7 800] ------- [7:255 -1:255 28 0] [0x2 3 1 [19 0] [0 4]] (REQUEST)
r 0.009884088 _5_ RTR  --- 0 AODV 48 [0 ffffffff 7 800] ------- [7:255 -1:255 28 0] [0x2 3 1 [19 0] [0 4]] (REQUEST)
r 0.009884288 _3_ RTR  --- 0 AODV 48 [0 ffffffff 7 800] ------- [7:255 -1:255 28 0] [0x2 3 1 [19 0] [0 4]] (REQUEST)
r 0.009884341 _9_ RTR  --- 0 AODV 48 [0 ffffffff 7 800] ------- [7:255 -1:255 28 0] [0x2 3 1 [19 0] [0 4]] (REQUEST)
r 0.009884349 _4_ RTR  --- 0 AODV 48 [0 ffffffff 7 800] ------- [7:255 -1:255 28 0] [0x2 3 1 [19 0] [0 4]] (REQUEST)
r 0.009884381 _12_ RTR  --- 0 AODV 48 [0 ffffffff 7 800] ------- [7:255 -1:255 28 0] [0x2 3 1 [19 0] [0 4]] (REQUEST)
r 0.009884465 _14_ RTR  --- 0 AODV 48 [0 ffffffff 7 800] ------- [7:255 -1:255 28 0] [0x2 3 1 [19 0] [0 4]] (REQUEST)
s 0.010089349 _4_ MAC  --- 0 AODV 106 [0 ffffffff 4 800] ------- [4:255 -1:255 29 0] [0x2 2 1 [19 0] [0 4]] (REQUEST)
s 0.010348281 _11_ RTR  --- 0 AODV 48 [0 ffffffff 6 800] ------- [11:255 -1:255 27 0] [0x2 4 1 [19 0] [0 4]] (REQUEST)
r 0.010937598 _3_ MAC  --- 0 AODV 48 [0 ffffffff 4 800] ------- [4:255 -1:255 29 0] [0x2 2 1 [19 0] [0 4]] (REQUEST)
r 0.010937642 _6_ MAC  --- 0 AODV 48 [0 ffffffff 4 800] ------- [4:255 -1:255 29 0] [0x2 2 1 [19 0] [0 4]] (REQUEST)
r 0.010937932 _5_ MAC  --- 0 AODV 48 [0 ffffffff 4 800] ------- [4:255 -1:255 29 0] [0x2 2 1 [19 0] [0 4]] (REQUEST)
r 0.010938002 _1_ MAC  --- 0 AODV 48 [0 ffffffff 4 800] ------- [4:255 -1:255 29 0] [0x2 2 1 [19 0] [0 4]] (REQUEST)
r 0.010938041 _7_ MAC  --- 0 AODV 48 [0 ffffffff 4 800] ------- [4:255 -1:255 29 0] [0x2 2 1 [19 0] [0 4]] (REQUEST)
r 0.010938055 _0_ MAC  --- 0 AODV 48 [0 ffffffff 4 800] ------- [4:255 -1:255 29 0] [0x2 2 1 [19 0] [0 4]] (REQUEST)
r 0.010938077 _2_ MAC  --- 0 AODV 48 [0 ffffffff 4 800] ------- [4:255 -1:255 29 0] [0x2 2 1 [19 0] [0 4]] (REQUEST)
r 0.010938115 _8_ MAC  --- 0 AODV 48 [0 ffffffff 4 800] ------- [4:255 -1:255 29 0] [0x2 2 1 [19 0] [0 4]] (REQUEST)
r 0.010962598 _3_ RTR  --- 0 AODV 48 [0 ffffffff 4 800] ------- [4:255 -1:255 29 0] [0x2 2 1 [19 0] [0 4]] (REQUEST)
r 0.010962642 _6_ RTR  --- 0 AODV 48 [0 ffffffff 4 800] ------- [4:255 -1:255 29 0] [0x2 2 1 [19 0] [0 4]] (REQUEST)
r 0.010962932 _5_ RTR  --- 0 AODV 48 [0 ffffffff 4 800] ------- [4:255 -1:255 29 0] [0x2 2 1 [19 0] [0 4]] (REQUEST)
r 0.010963002 _1_ RTR  --- 0 AODV 48 [0 ffffffff 4 800] ------- [4:255 -1:255 29 0] [0x2 2 1 [19 0] [0 4]] (REQUEST)
r 0.010963041 _7_ RTR  --- 0 AODV 48 [0 ffffffff 4 800] ------- [4:255 -1:255 29 0] [0x2 2 1 [19 0] [0 4]] (REQUEST)
r 0.010963055 _0_ RTR  --- 0 AODV 48 [0 ffffffff 4 800] ------- [4:255 -1:255 29 0] [0x2 2 1 [19 0] [0 4]] (REQUEST)
r 0.010963077 _2_ RTR  --- 0 AODV 48 [0 ffffffff 4 800] ------- [4:255 -1:255 29 0] [0x2 2 1 [19 0] [0 4]] (REQUEST)
r 0.010963115 _8_ RTR  --- 0 AODV 48 [0 ffffffff 4 800] ------- [4:255 -1:255 29 0] [0x2 2 1 [19 0] [0 4]] (REQUEST)
s 0.011387932 _5_ MAC  --- 0 AODV 106 [0 ffffffff 5 800] ------- [5:255 -1:255 28 0] [0x2 3 1 [19 0] [0 4]] (REQUEST)
s 0.011707804 _9_ RTR  --- 0 AODV 48 [0 ffffffff 2 800] ------- [9:255 -1:255 28 0] [0x2 3 1 [19 0] [0 4]] (REQUEST)
s 0.012056059 _14_ RTR  --- 0 AODV 48 [0 ffffffff 7 800] ------- [14:255 -1:255 27 0] [0x2 4 1 [19 0] [0 4]] (REQUEST)
r 0.012236144 _8_ MAC  --- 0 AODV 48 [0 ffffffff 5 800] ------- [5:255 -1:255 28 0] [0x2 3 1 [19 0] [0 4]] (REQUEST)
r 0.012236311 _3_ MAC  --- 0 AODV 48 [0 ffffffff 5 800] ------- [5:255 -1:255 28 0] [0x2 3 1 [19 0] [0 4]] (REQUEST)
r 0.012236348 _6_ MAC  --- 0 AODV 48 [0 ffffffff 5 800] ------- [5:255 -1:255 28 0] [0x2 3 1 [19 0] [0 4]] (REQUEST)
r 0.012236363 _7_ MAC  --- 0 AODV 48 [0 ffffffff 5 800] ------- [5:255 -1:255 28 0] [0x2 3 1 [19 0] [0 4]] (REQUEST)
r 0.012236410 _2_ MAC  --- 0 AODV 48 [0 ffffffff 5 800] ------- [5:255 -1:255 28 0] [0x2 3 1 [19 0] [0 4]] (REQUEST)
r 0.012236454 _9_ MAC  --- 0 AODV 48 [0 ffffffff 5 800] ------- [5:255 -1:255 28 0] [0x2 3 1 [19 0] [0 4]] (REQUEST)
r 0.012236515 _4_ MAC  --- 0 AODV 48 [0 ffffffff 5 800] ------- [5:255 -1:255 28 0] [0x2 3 1 [19 0] [0 4]] (REQUEST)
r 0.012236621 _1_ MAC  --- 0 AODV 48 [0 ffffffff 5 800] ------- [5:255 -1:255 28 0] [0x2 3 1 [19 0] [0 4]] (REQUEST)
r 0.012236723 _11_ MAC  --- 0 AODV 48 [0 ffffffff 5 800] ------- [5:255 -1:255 28 0] [0x2 3 1 [19 0] [0 4]] (REQUEST)
r 0.012261144 _8_ RTR  --- 0 AODV 48 [0 ffffffff 5 800] ------- [5:255 -1:255 28 0] [0x2 3 1 [19 0] [0 4]] (REQUEST)
r 0.012261311 _3_ RTR  --- 0 AODV 48 [0 ffffffff 5 800] ------- [5:255 -1:255 28 0] [0x2 3 1 [19 0] [0 4]] (REQUEST)
r 0.012261348 _6_ RTR  --- 0 AODV 48 [0 ffffffff 5 800] ------- [5:255 -1:255 28 0] [0x2 3 1 [19 0] [0 4]] (REQUEST)
r 0.012261363 _7_ RTR  --- 0 AODV 48 [0 ffffffff 5 800] ------- [5:255 -1:255 28 0] [0x2 3 1 [19 0] [0 4]] (REQUEST)
r 0.012261410 _2_ RTR  --- 0 AODV 48 [0 ffffffff 5 800] ------- [5:255 -1:255 28 0] [0x2 3 1 [19 0] [0 4]] (REQUEST)
r 0.012261454 _9_ RTR  --- 0 AODV 48 [0 ffffffff 5 800] ------- [5:255 -1:255 28 0] [0x2 3 1 [19 0] [0 4]] (REQUEST)
r 0.012261515 _4_ RTR  --- 0 AODV 48 [0 ffffffff 5 800] ------- [5:255 -1:255 28 0] [0x2 3 1 [19 0] [0 4]] (REQUEST)
r 0.012261621 _1_ RTR  --- 0 AODV 48 [0 ffffffff 5 800] ------- [5:255 -1:255 28 0] [0x2 3 1 [19 0] [0 4]] (REQUEST)
r 0.012261723 _11_ RTR  --- 0 AODV 48 [0 ffffffff 5 800] ------- [5:255 -1:255 28 0] [0x2 3 1 [19 0] [0 4]] (REQUEST)
s 0.012586454 _9_ MAC  --- 0 AODV 106 [0 ffffffff 9 800] ------- [9:255 -1:255 28 0] [0x2 3 1 [19 0] [0 4]] (REQUEST)
s 0.013387199 _12_ RTR  --- 0 AODV 48 [0 ffffffff 8 800] ------- [12:255 -1:255 27 0] [0x2 4 1 [19 0] [0 4]] (REQUEST)
r 0.013434801 _10_ MAC  --- 0 AODV 48 [0 ffffffff 9 800] ------- [9:255 -1:255 28 0] [0x2 3 1 [19 0] [0 4]] (REQUEST)
r 0.013434812 _8_ MAC  --- 0 AODV 48 [0 ffffffff 9 800] ------- [9:255 -1:255 28 0] [0x2 3 1 [19 0] [0 4]] (REQUEST)
r 0.013434976 _5_ MAC  --- 0 AODV 48 [0 ffffffff 9 800] ------- [9:255 -1:255 28 0] [0x2 3 1 [19 0] [0 4]] (REQUEST)
r 0.013435137 _7_ MAC  --- 0 AODV 48 [0 ffffffff 9 800] ------- [9:255 -1:255 28 0] [0x2 3 1 [19 0] [0 4]] (REQUEST)
r 0.013435157 _12_ MAC  --- 0 AODV 48 [0 ffffffff 9 800] ------- [9:255 -1:255 28 0] [0x2 3 1 [19 0] [0 4]] (REQUEST)
r 0.013435211 _2_ MAC  --- 0 AODV 48 [0 ffffffff 9 800] ------- [9:255 -1:255 28 0] [0x2 3 1 [19 0] [0 4]] (REQUEST)
r 0.013459801 _10_ RTR  --- 0 AODV 48 [0 ffffffff 9 800] ------- [9:255 -1:255 28 0] [0x2 3 1 [19 0] [0 4]] (REQUEST)
r 0.013459812 _8_ RTR  --- 0 AODV 48 [0 ffffffff 9 800] ------- [9:255 -1:255 28 0] [0x2 3 1 [19 0] [0 4]] (REQUEST)
r 0.013459976 _5_ RTR  --- 0 AODV 48 [0 ffffffff 9 800] ------- [9:255 -1:255 28 0] [0x2 3 1 [19 0] [0 4]] (REQUEST)
r 0.013460137 _7_ RTR  --- 0 AODV 48 [0 ffffffff 9 800] ------- [9:255 -1:255 28 0] [0x2 3 1 [19 0] [0 4]] (REQUEST)
r 0.013460157 _12_ RTR  --- 0 AODV 48 [0 ffffffff 9 800] ------- [9:255 -1:255 28 0] [0x2 3 1 [19 0] [0 4]] (REQUEST)
r 0.013460211 _2_ RTR  --- 0 AODV 48 [0 ffffffff 9 800] ------- [9:255 -1:255 28 0] [0x2 3 1 [19 0] [0 4]] (REQUEST)
s 0.013565157 _12_ MAC  --- 0 AODV 106 [0 ffffffff c 800] ------- [12:255 -1:255 27 0] [0x2 4 1 [19 0] [0 4]] (REQUEST)
s 0.013912435 _10_ RTR  --- 0 AODV 48 [0 ffffffff 8 800] ------- [10:255 -1:255 27 0] [0x2 4 1 [19 0] [0 4]] (REQUEST)
r 0.014413539 _13_ MAC  --- 0 AODV 48 [0 ffffffff c 800] ------- [12:255 -1:255 27 0] [0x2 4 1 [19 0] [0 4]] (REQUEST)
r 0.014413741 _10_ MAC  --- 0 AODV 48 [0 ffffffff c 800] ------- [12:255 -1:255 27 0] [0x2 4 1 [19 0] [0 4]] (REQUEST)
r 0.014413799 _18_ MAC  --- 0 AODV 48 [0 ffffffff c 800] ------- [12:255 -1:255 27 0] [0x2 4 1 [19 0] [0 4]] (REQUEST)
r 0.014413841 _11_ MAC  --- 0 AODV 48 [0 ffffffff c 800] ------- [12:255 -1:255 27 0] [0x2 4 1 [19 0] [0 4]] (REQUEST)
r 0.014413860 _9_ MAC  --- 0 AODV 48 [0 ffffffff c 800] ------- [12:255 -1:255 27 0] [0x2 4 1 [19 0] [0 4]] (REQUEST)
r 0.014413872 _14_ MAC  --- 0 AODV 48 [0 ffffffff c 800] ------- [12:255 -1:255 27 0] [0x2 4 1 [19 0] [0 4]] (REQUEST)
r 0.014413880 _7_ MAC  --- 0 AODV 48 [0 ffffffff c 800] ------- [12:255 -1:255 27 0] [0x2 4 1 [19 0] [0 4]] (REQUEST)
r 0.014413913 _8_ MAC  --- 0 AODV 48 [0 ffffffff c 800] ------- [12:255 -1:255 27 0] [0x2 4 1 [19 0] [0 4]] (REQUEST)
r 0.014413921 _16_ MAC  --- 0 AODV 48 [0 ffffffff c 800] ------- [12:255 -1:255 27 0] [0x2 4 1 [19 0] [0 4]] (REQUEST)
r 0.014413935 _15_ MAC  --- 0 AODV 48 [0 ffffffff c 800] ------- [12:255 -1:255 27 0] [0x2 4 1 [19 0] [0 4]] (REQUEST)
r 0.014438539 _13_ RTR  --- 0 AODV 48 [0 ffffffff c 800] ------- [12:255 -1:255 27 0] [0x2 4 1 [19 0] [0 4]] (REQUEST)
r 0.014438741 _10_ RTR  --- 0 AODV 48 [0 ffffffff c 800] ------- [12:255 -1:255 27 0] [0x2 4 1 [19 0] [0 4]] (REQUEST)
r 0.014438799 _18_ RTR  --- 0 AODV 48 [0 ffffffff c 800] ------- [12:255 -1:255 27 0] [0x2 4 1 [19 0] [0 4]] (REQUEST)
r 0.014438841 _11_ RTR  --- 0 AODV 48 [0 ffffffff c 800] ------- [12:255 -1:255 27 0] [0x2 4 1 [19 0] [0 4]] (REQUEST)
r 0.014438860 _9_ RTR  --- 0 AODV 48 [0 ffffffff c 800] ------- [12:255 -1:255 27 0] [0x2 4 1 [19 0] [0 4]] (REQUEST)
r 0.014438872 _14_ RTR  --- 0 AODV 48 [0 ffffffff c 800] ------- [12:255 -1:255 27 0] [0x2 4 1 [19 0] [0 4]] (REQUEST)
r 0.014438880 _7_ RTR  --- 0 AODV 48 [0 ffffffff c 800] ------- [12:255 -1:255 27 0] [0x2 4 1 [19 0] [0 4]] (REQUEST)
r 0.014438913 _8_ RTR  --- 0 AODV 48 [0 ffffffff c 800] ------- [12:255 -1:255 27 0] [0x2 4 1 [19 0] [0 4]] (REQUEST)
r 0.014438921 _16_ RTR  --- 0 AODV 48 [0 ffffffff c 800] ------- [12:255 -1:255 27 0] [0x2 4 1 [19 0] [0 4]] (REQUEST)
r 0.014438935 _15_ RTR  --- 0 AODV 48 [0 ffffffff c 800] ------- [12:255 -1:255 27 0] [0x2 4 1 [19 0] [0 4]] (REQUEST)
s 0.014503841 _11_ MAC  --- 0 AODV 106 [0 ffffffff b 800] ------- [11:255 -1:255 27 0] [0x2 4 1 [19 0] [0 4]] (REQUEST)
r 0.015352202 _7_ MAC  --- 0 AODV 48 [0 ffffffff b 800] ------- [11:255 -1:255 27 0] [0x2 4 1 [19 0] [0 4]] (REQUEST)
r 0.015352306 _14_ MAC  --- 0 AODV 48 [0 ffffffff b 800] ------- [11:255 -1:255 27 0] [0x2 4 1 [19 0] [0 4]] (REQUEST)
r 0.015352503 _6_ MAC  --- 0 AODV 48 [0 ffffffff b 800] ------- [11:255 -1:255 27 0] [0x2 4 1 [19 0] [0 4]] (REQUEST)
r 0.015352525 _12_ MAC  --- 0 AODV 48 [0 ffffffff b 800] ------- [11:255 -1:255 27 0] [0x2 4 1 [19 0] [0 4]] (REQUEST)
r 0.015352549 _8_ MAC  --- 0 AODV 48 [0 ffffffff b 800] ------- [11:255 -1:255 27 0] [0x2 4 1 [19 0] [0 4]] (REQUEST)
r 0.015352632 _5_ MAC  --- 0 AODV 48 [0 ffffffff b 800] ------- [11:255 -1:255 27 0] [0x2 4 1 [19 0] [0 4]] (REQUEST)
r 0.015377202 _7_ RTR  --- 0 AODV 48 [0 ffffffff b 800] ------- [11:255 -1:255 27 0] [0x2 4 1 [19 0] [0 4]] (REQUEST)
r 0.015377306 _14_ RTR  --- 0 AODV 48 [0 ffffffff b 800] ------- [11:255 -1:255 27 0] [0x2 4 1 [19 0] [0 4]] (REQUEST)
r 0.015377503 _6_ RTR  --- 0 AODV 48 [0 ffffffff b 800] ------- [11:255 -1:255 27 0] [0x2 4 1 [19 0] [0 4]] (REQUEST)
r 0.015377525 _12_ RTR  --- 0 AODV 48 [0 ffffffff b 800] ------- [11:255 -1:255 27 0] [0x2 4 1 [19 0] [0 4]] (REQUEST)
r 0.015377549 _8_ RTR  --- 0 AODV 48 [0 ffffffff b 800] ------- [11:255 -1:255 27 0] [0x2 4 1 [19 0] [0 4]] (REQUEST)
r 0.015377632 _5_ RTR  --- 0 AODV 48 [0 ffffffff b 800] ------- [11:255 -1:255 27 0] [0x2 4 1 [19 0] [0 4]] (REQUEST)
s 0.015559248 _15_ RTR  --- 0 AODV 48 [0 ffffffff c 800] ------- [15:255 -1:255 26 0] [0x2 5 1 [19 0] [0 4]] (REQUEST)
s 0.015722306 _14_ MAC  --- 0 AODV 106 [0 ffffffff e 800] ------- [14:255 -1:255 27 0] [0x2 4 1 [19 0] [0 4]] (REQUEST)
r 0.016570771 _11_ MAC  --- 0 AODV 48 [0 ffffffff e 800] ------- [14:255 -1:255 27 0] [0x2 4 1 [19 0] [0 4]] (REQUEST)
r 0.016570879 _15_ MAC  --- 0 AODV 48 [0 ffffffff e 800] ------- [14:255 -1:255 27 0] [0x2 4 1 [19 0] [0 4]] (REQUEST)
r 0.016571021 _12_ MAC  --- 0 AODV 48 [0 ffffffff e 800] ------- [14:255 -1:255 27 0] [0x2 4 1 [19 0] [0 4]] (REQUEST)
r 0.016571107 _13_ MAC  --- 0 AODV 48 [0 ffffffff e 800] ------- [14:255 -1:255 27 0] [0x2 4 1 [19 0] [0 4]] (REQUEST)
r 0.016571114 _7_ MAC  --- 0 AODV 48 [0 ffffffff e 800] ------- [14:255 -1:255 27 0] [0x2 4 1 [19 0] [0 4]] (REQUEST)
r 0.016595771 _11_ RTR  --- 0 AODV 48 [0 ffffffff e 800] ------- [14:255 -1:255 27 0] [0x2 4 1 [19 0] [0 4]] (REQUEST)
r 0.016595879 _15_ RTR  --- 0 AODV 48 [0 ffffffff e 800] ------- [14:255 -1:255 27 0] [0x2 4 1 [19 0] [0 4]] (REQUEST)
r 0.016596021 _12_ RTR  --- 0 AODV 48 [0 ffffffff e 800] ------- [14:255 -1:255 27 0] [0x2 4 1 [19 0] [0 4]] (REQUEST)
r 0.016596107 _13_ RTR  --- 0 AODV 48 [0 ffffffff e 800] ------- [14:255 -1:255 27 0] [0x2 4 1 [19 0] [0 4]] (REQUEST)
r 0.016596114 _7_ RTR  --- 0 AODV 48 [0 ffffffff e 800] ------- [14:255 -1:255 27 0] [0x2 4 1 [19 0] [0 4]] (REQUEST)
s 0.016740879 _15_ MAC  --- 0 AODV 106 [0 ffffffff f 800] ------- [15:255 -1:255 26 0] [0x2 5 1 [19 0] [0 4]] (REQUEST)
r 0.017589385 _16_ MAC  --- 0 AODV 48 [0 ffffffff f 800] ------- [15:255 -1:255 26 0] [0x2 5 1 [19 0] [0 4]] (REQUEST)
r 0.017589444 _13_ MAC  --- 0 AODV 48 [0 ffffffff f 800] ------- [15:255 -1:255 26 0] [0x2 5 1 [19 0] [0 4]] (REQUEST)
r 0.017589453 _14_ MAC  --- 0 AODV 48 [0 ffffffff f 800] ------- [15:255 -1:255 26 0] [0x2 5 1 [19 0] [0 4]] (REQUEST)
r 0.017589657 _12_ MAC  --- 0 AODV 48 [0 ffffffff f 800] ------- [15:255 -1:255 26 0] [0x2 5 1 [19 0] [0 4]] (REQUEST)
r 0.017614385 _16_ RTR  --- 0 AODV 48 [0 ffffffff f 800] ------- [15:255 -1:255 26 0] [0x2 5 1 [19 0] [0 4]] (REQUEST)
r 0.017614444 _13_ RTR  --- 0 AODV 48 [0 ffffffff f 800] ------- [15:255 -1:255 26 0] [0x2 5 1 [19 0] [0 4]] (REQUEST)
r 0.017614453 _14_ RTR  --- 0 AODV 48 [0 ffffffff f 800] ------- [15:255 -1:255 26 0] [0x2 5 1 [19 0] [0 4]] (REQUEST)
r 0.017614657 _12_ RTR  --- 0 AODV 48 [0 ffffffff f 800] ------- [15:255 -1:255 26 0] [0x2 5 1 [19 0] [0 4]] (REQUEST)
s 0.018164221 _10_ MAC  --- 0 AODV 106 [0 ffffffff a 800] ------- [10:255 -1:255 27 0] [0x2 4 1 [19 0] [0 4]] (REQUEST)
r 0.019012568 _9_ MAC  --- 0 AODV 48 [0 ffffffff a 800] ------- [10:255 -1:255 27 0] [0x2 4 1 [19 0] [0 4]] (REQUEST)
r 0.019012806 _12_ MAC  --- 0 AODV 48 [0 ffffffff a 800] ------- [10:255 -1:255 27 0] [0x2 4 1 [19 0] [0 4]] (REQUEST)
r 0.019012884 _8_ MAC  --- 0 AODV 48 [0 ffffffff a 800] ------- [10:255 -1:255 27 0] [0x2 4 1 [19 0] [0 4]] (REQUEST)
r 0.019012922 _18_ MAC  --- 0 AODV 48 [0 ffffffff a 800] ------- [10:255 -1:255 27 0] [0x2 4 1 [19 0] [0 4]] (REQUEST)
r 0.019013051 _13_ MAC  --- 0 AODV 48 [0 ffffffff a 800] ------- [10:255 -1:255 27 0] [0x2 4 1 [19 0] [0 4]] (REQUEST)
r 0.019037568 _9_ RTR  --- 0 AODV 48 [0 ffffffff a 800] ------- [10:255 -1:255 27 0] [0x2 4 1 [19 0] [0 4]] (REQUEST)
r 0.019037806 _12_ RTR  --- 0 AODV 48 [0 ffffffff a 800] ------- [10:255 -1:255 27 0] [0x2 4 1 [19 0] [0 4]] (REQUEST)
r 0.019037884 _8_ RTR  --- 0 AODV 48 [0 ffffffff a 800] ------- [10:255 -1:255 27 0] [0x2 4 1 [19 0] [0 4]] (REQUEST)
r 0.019037922 _18_ RTR  --- 0 AODV 48 [0 ffffffff a 800] ------- [10:255 -1:255 27 0] [0x2 4 1 [19 0] [0 4]] (REQUEST)
r 0.019038051 _13_ RTR  --- 0 AODV 48 [0 ffffffff a 800] ------- [10:255 -1:255 27 0] [0x2 4 1 [19 0] [0 4]] (REQUEST)
s 0.023312975 _13_ RTR  --- 0 AODV 48 [0 ffffffff c 800] ------- [13:255 -1:255 26 0] [0x2 5 1 [19 0] [0 4]] (REQUEST)
s 0.023352399 _16_ RTR  --- 0 AODV 48 [0 ffffffff c 800] ------- [16:255 -1:255 26 0] [0x2 5 1 [19 0] [0 4]] (REQUEST)
s 0.023567975 _13_ MAC  --- 0 AODV 106 [0 ffffffff d 800] ------- [13:255 -1:255 26 0] [0x2 5 1 [19 0] [0 4]] (REQUEST)
s 0.023901449 _18_ RTR  --- 0 AODV 48 [0 ffffffff c 800] ------- [18:255 -1:255 26 0] [0x2 5 1 [19 0] [0 4]] (REQUEST)
r 0.024416357 _12_ MAC  --- 0 AODV 48 [0 ffffffff d 800] ------- [13:255 -1:255 26 0] [0x2 5 1 [19 0] [0 4]] (REQUEST)
r 0.024416360 _16_ MAC  --- 0 AODV 48 [0 ffffffff d 800] ------- [13:255 -1:255 26 0] [0x2 5 1 [19 0] [0 4]] (REQUEST)
r 0.024416449 _18_ MAC  --- 0 AODV 48 [0 ffffffff d 800] ------- [13:255 -1:255 26 0] [0x2 5 1 [19 0] [0 4]] (REQUEST)
r 0.024416539 _15_ MAC  --- 0 AODV 48 [0 ffffffff d 800] ------- [13:255 -1:255 26 0] [0x2 5 1 [19 0] [0 4]] (REQUEST)
r 0.024416639 _17_ MAC  --- 0 AODV 48 [0 ffffffff d 800] ------- [13:255 -1:255 26 0] [0x2 5 1 [19 0] [0 4]] (REQUEST)
r 0.024416713 _19_ MAC  --- 0 AODV 48 [0 ffffffff d 800] ------- [13:255 -1:255 26 0] [0x2 5 1 [19 0] [0 4]] (REQUEST)
r 0.024416775 _14_ MAC  --- 0 AODV 48 [0 ffffffff d 800] ------- [13:255 -1:255 26 0] [0x2 5 1 [19 0] [0 4]] (REQUEST)